,MOSES id,CONFORMER id,archive name,DFT TOTAL ENERGY,DFT XC ENERGY,DFT NUCLEAR REPULSION ENERGY,DFT ONE-ELECTRON ENERGY,DFT TWO-ELECTRON ENERGY,DFT DIPOLE X,DFT DIPOLE Y,DFT DIPOLE Z,DFT TOTAL DIPOLE,DFT ROT CONSTANT A,DFT ROT CONSTANT B,DFT ROT CONSTANT C,DFT HOMO,DFT LUMO,DFT HOMO-LUMO GAP,DFT ATOMIC ENERGY,DFT FORMATION ENERGY,SMILES,SPLITS
746,245,2,data/moses_wfns/archive_0_0_2.tar,-898.1707191545107,-86.28145261366686,1505.9397289557564,-4211.112853398592,1893.30927107614,2.026187938296644,1.5476051648809803,-0.3580171526507911,2.5746253298795283,0.0201071236705081,0.0072662025563282,0.0058331403374894,-0.2999873751012838,-0.0065204087212121,0.2934669663800717,-891.7594374829592,-6.411281671551478,COc1ccc2c(c1)C(=O)C(Cc1cccnc1)CO2,train_full
747,245,3,data/moses_wfns/archive_0_0_2.tar,-898.1755859998301,-86.25643751909787,1481.284163484284,-4161.541504449997,1868.3635548355123,0.9128701913666694,-1.0961054533289027,0.473551593199111,1.5030070733448315,0.0303571682275299,0.0054237388503479,0.0050287347643465,-0.3016848045687619,-0.0001615394792118,0.3015232650895501,-891.7594374829592,-6.416148516870862,COc1ccc2c(c1)C(=O)C(Cc1cccnc1)CO2,train_full
748,246,0,data/moses_wfns/archive_0_0_2.tar,-995.196036864748,-96.33969260898722,1769.4421505896482,-4867.794288768226,2199.5282604922013,3.618879161821962,1.9492835442296004,-1.6446831734442364,4.427298890371435,0.0271876399613814,0.003309637272523,0.0032150103941794,-0.312530711069567,0.0642178272970875,0.3767485383666544,-987.5974044663752,-7.598632398372956,O=C(C1CCCN1C(=O)OCc1ccccc1)N1CCCC1,train_full
749,246,1,data/moses_wfns/archive_0_0_2.tar,-995.1909067710108,-96.33950935022143,1818.631553942511,-4966.580606131367,2249.1312089517005,3.1987889049363147,2.5355014941166583,-0.4004014871939676,4.101382649297504,0.0148439277277679,0.00496477439893,0.0041810762882692,-0.313376204775665,0.062641281532173,0.376017486307838,-987.5974044663752,-7.593502304635649,O=C(C1CCCN1C(=O)OCc1ccccc1)N1CCCC1,train_full
750,246,2,data/moses_wfns/archive_0_0_2.tar,-995.1881806703788,-96.34815814386442,1830.7191211362376,-4990.813054193302,2261.28789539972,6.377566907360015,-0.8018776380824058,-1.4948370721465,6.599310969834178,0.0160759022057381,0.0050044438417278,0.0042043471152192,-0.3076518119343823,0.0721025295874362,0.3797543415218185,-987.5974044663752,-7.59077620400376,O=C(C1CCCN1C(=O)OCc1ccccc1)N1CCCC1,train_full
751,246,3,data/moses_wfns/archive_0_0_2.tar,-995.1965002144066,-96.36008660311646,1772.5248651314628,-4874.197279842321,2202.868620152756,2.9068128255249737,4.363740293280946,-0.5259174781553281,5.269571077769937,0.02612774291165,0.0034643431720841,0.0031615618438944,-0.3020353203723608,0.0661256687407649,0.3681609891131257,-987.5974044663752,-7.599095748031459,O=C(C1CCCN1C(=O)OCc1ccccc1)N1CCCC1,train_full
752,246,4,data/moses_wfns/archive_0_0_2.tar,-995.1898382341152,-96.36884137580768,1820.3339008566168,-4969.085680224793,2249.9650563894324,-3.6216882710702265,-0.3509959622893121,-4.133746214974418,5.507057460038562,0.0165744310758681,0.0045710961525377,0.0040634606007714,-0.3054217203786154,0.0437957023094305,0.3492174226880459,-987.5974044663752,-7.59243376774009,O=C(C1CCCN1C(=O)OCc1ccccc1)N1CCCC1,train_full
753,246,5,data/moses_wfns/archive_0_0_2.tar,-995.1872495158098,-96.36334031436868,1829.2145449948823,-4987.79219765722,2259.788141321419,4.089981050190358,0.4488771512262275,-1.5203894454834348,4.386458680273488,0.017404107587594,0.0047182677088694,0.0041421646797897,-0.3088031710270922,0.0711407612551259,0.3799439322822181,-987.5974044663752,-7.589845049434643,O=C(C1CCCN1C(=O)OCc1ccccc1)N1CCCC1,train_full
754,246,6,data/moses_wfns/archive_0_0_2.tar,-995.1941255364186,-96.36490198843612,1823.6652154178385,-4976.276615448617,2253.815785217573,5.722506340055875,1.1725492724228468,3.113139706071128,6.619183441917564,0.0158383100912491,0.0047420583667037,0.0041489463983494,-0.3064527130789048,0.0703968625814555,0.3768495756603603,-987.5974044663752,-7.596721070043486,O=C(C1CCCN1C(=O)OCc1ccccc1)N1CCCC1,train_full
755,246,7,data/moses_wfns/archive_0_0_2.tar,-995.193240449454,-96.35605281582112,1800.3612729816596,-4929.828256937037,2230.663109887999,2.215928198659848,2.8068162021696748,1.4665462881620284,3.865140746428246,0.0191384887376891,0.0040470207301103,0.0038003783338703,-0.3124798150836607,0.0600379946579678,0.3725178097416285,-987.5974044663752,-7.595835983078814,O=C(C1CCCN1C(=O)OCc1ccccc1)N1CCCC1,train_full
756,246,8,data/moses_wfns/archive_0_0_2.tar,-995.1576487056722,-96.37325261354096,1775.5911132865915,-4880.270804395769,2205.92799391086,1.6524975281656105,5.554841373322152,-0.7524710395188648,5.844075925985184,0.0293337379229544,0.0034098708694308,0.0032169999084285,-0.2924437901213631,0.0573238555739885,0.3497676456953516,-987.5974044663752,-7.560244239297049,O=C(C1CCCN1C(=O)OCc1ccccc1)N1CCCC1,train_full
757,246,9,data/moses_wfns/archive_0_0_2.tar,-995.1960967266956,-96.34526769102126,1817.0998407704096,-4963.623766685903,2247.7073162692545,2.6639426516480462,3.8321735834864254,-1.286464122057828,4.84119146105407,0.0194629975687087,0.0042327846285932,0.0039510334586471,-0.3069287260031815,0.0663006981336004,0.3732294241367819,-987.5974044663752,-7.598692260320604,O=C(C1CCCN1C(=O)OCc1ccccc1)N1CCCC1,train_full
758,246,10,data/moses_wfns/archive_0_0_2.tar,-995.1857750724138,-96.342254631316,1850.7022663049715,-5029.932585882473,2280.421291027375,0.927230657867242,-1.0191897237418603,-0.7975621401867596,1.5920457761412554,0.0123792755530425,0.0060949692788337,0.005119129672907,-0.3116382673719565,0.0477286052505702,0.3593668726225267,-987.5974044663752,-7.588370606038666,O=C(C1CCCN1C(=O)OCc1ccccc1)N1CCCC1,train_full
759,246,11,data/moses_wfns/archive_0_0_2.tar,-995.1950082151112,-96.3300130219138,1836.2031505183136,-5000.763155456248,2265.729914376176,-0.2574618309672064,-2.1139543423167626,1.1245103627897657,2.408238591133871,0.013586675961252,0.0053272098151303,0.0046552156471115,-0.3163881761611442,0.0447855603155609,0.3611737364767051,-987.5974044663752,-7.597603748736219,O=C(C1CCCN1C(=O)OCc1ccccc1)N1CCCC1,test_full_conformations
760,247,0,data/moses_wfns/archive_0_0_2.tar,-1166.0741683686751,-108.36713849908878,2130.174038975588,-5824.385253256034,2636.538055080477,4.810780835201349,1.571307350366836,0.5821250855198801,5.094260363276397,0.0087043510132909,0.0072441950513016,0.0052953908469795,-0.3208222267672075,0.0069913594453127,0.3278135862125202,-1159.124679623496,-6.949488745179224,CC(c1ccncn1)C(O)(Cn1cncn1)c1ccc(F)cc1F,test_full_structures
761,247,1,data/moses_wfns/archive_0_0_2.tar,-1166.1017991339183,-108.39352451107062,2142.320788614631,-5848.853817436009,2648.8604476181813,-1.756599049319205,1.3016243961270824,-0.9971952350191784,2.402969959322688,0.0120499558781986,0.0061518373324705,0.0048833903069845,-0.316421084866988,0.0237235056851733,0.3401445905521613,-1159.124679623496,-6.977119510422426,CC(c1ccncn1)C(O)(Cn1cncn1)c1ccc(F)cc1F,test_full_structures
762,247,2,data/moses_wfns/archive_0_0_2.tar,-1166.0874092932231,-108.41327664101942,2158.556577081542,-5881.560408168948,2665.3666399559697,-1.789233862656323,2.909271799336225,2.654227884576512,4.325522613621688,0.0176762563301929,0.0052233341188861,0.0044858950367349,-0.3021057648532512,0.0303778393010126,0.3324836041542638,-1159.124679623496,-6.962729669727196,CC(c1ccncn1)C(O)(Cn1cncn1)c1ccc(F)cc1F,test_full_structures
763,247,3,data/moses_wfns/archive_0_0_2.tar,-1166.0819648118074,-108.39114885411522,2124.066156157678,-5811.971609833904,2630.2503023103177,-0.5669866698721957,2.625463187492337,-3.4752764924811044,4.39227475596438,0.0107589314481465,0.006155497537081,0.0046656891834433,-0.3161641106631433,0.0217801795731138,0.3379442902362571,-1159.124679623496,-6.957285188311516,CC(c1ccncn1)C(O)(Cn1cncn1)c1ccc(F)cc1F,test_full_structures
764,247,4,data/moses_wfns/archive_0_0_2.tar,-1166.0875709664574,-108.3988732614518,2120.971522181222,-5806.025449524448,2627.4001874836413,3.7066655307990986,-0.0951127016034756,3.474689845570804,5.081523915729742,0.0109860880957284,0.0060600046992928,0.0045933905395779,-0.3247929357223591,0.0026592298764352,0.3274521655987943,-1159.124679623496,-6.962891342961484,CC(c1ccncn1)C(O)(Cn1cncn1)c1ccc(F)cc1F,test_full_structures
765,247,5,data/moses_wfns/archive_0_0_2.tar,-1166.0962983789111,-108.36136567240403,2161.2236053306337,-5886.715613022129,2667.793238675525,2.4656157793402094,-1.3291833058037992,-0.1856898463824247,2.807217510419966,0.0093543350862377,0.0075388239974213,0.0056349828698029,-0.3241984821430926,0.0156751136734138,0.3398735958165064,-1159.124679623496,-6.97161875541542,CC(c1ccncn1)C(O)(Cn1cncn1)c1ccc(F)cc1F,test_full_structures
766,247,6,data/moses_wfns/archive_0_0_2.tar,-1166.1019466502892,-108.37234154176488,2144.1287418672537,-5852.348332777153,2650.5257689132345,1.6579029713134903,0.8905447644279294,0.8974774677407781,2.084988739739977,0.0110264407004192,0.0065069373375985,0.004939125578891,-0.325392517906554,0.004121728815493,0.329514246722047,-1159.124679623496,-6.977267026793243,CC(c1ccncn1)C(O)(Cn1cncn1)c1ccc(F)cc1F,test_full_structures
767,247,7,data/moses_wfns/archive_0_0_2.tar,-1166.1004458895632,-108.40260654526035,2150.6736532933164,-5865.4772376223045,2657.141377348857,1.8175751890996308,1.8095775945631407,-4.165499186135516,4.891782303871579,0.0106757536327416,0.0069296095405803,0.0048986702352517,-0.3219387139978452,0.0109002039508675,0.3328389179487127,-1159.124679623496,-6.97576626606724,CC(c1ccncn1)C(O)(Cn1cncn1)c1ccc(F)cc1F,test_full_structures
768,247,8,data/moses_wfns/archive_0_0_2.tar,-1166.0893436867475,-108.35758311837652,2142.027170827688,-5848.107941560958,2648.3846054030605,-1.891173577045269,4.562150160828875,3.2439169364624223,5.908701099153085,0.0100140549819617,0.0069315844363872,0.0048046390903268,-0.3200749271504642,0.0191208165095377,0.3391957436600019,-1159.124679623496,-6.964664063251803,CC(c1ccncn1)C(O)(Cn1cncn1)c1ccc(F)cc1F,test_full_structures
769,247,9,data/moses_wfns/archive_0_0_2.tar,-1166.1085713268285,-108.36642186216856,2160.801080343201,-5885.679125650165,2667.1726481853693,-1.2160667350733478,-0.263633933408431,0.3150901758481552,1.2835898776137082,0.011109746088188,0.0068773382477492,0.0049784018808954,-0.3208372952666015,0.0221489035905835,0.342986198857185,-1159.124679623496,-6.983891703332574,CC(c1ccncn1)C(O)(Cn1cncn1)c1ccc(F)cc1F,test_full_structures
770,247,10,data/moses_wfns/archive_0_0_2.tar,-1166.1097969337352,-108.36383513478214,2169.233674445297,-5902.464419047832,2675.521605383803,1.014672223012743,2.196207149052156,-0.9758478613996324,2.6086710429449806,0.0108177423506353,0.0069510112489992,0.0055511271121764,-0.3228693218454626,0.0161038161551129,0.3389731380005755,-1159.124679623496,-6.985117310239275,CC(c1ccncn1)C(O)(Cn1cncn1)c1ccc(F)cc1F,test_full_structures
771,247,11,data/moses_wfns/archive_0_0_2.tar,-1166.05426382167,-108.36463085555718,2164.32874202283,-5893.295678844111,2671.313081544098,-0.564315795659927,-0.9223544944682968,4.959441982403812,5.075948670694633,0.011584479779625,0.0062858915174666,0.0057647072617726,-0.3207839519937704,0.0207131245280714,0.3414970765218418,-1159.124679623496,-6.929584198174098,CC(c1ccncn1)C(O)(Cn1cncn1)c1ccc(F)cc1F,test_full_structures
772,247,12,data/moses_wfns/archive_0_0_2.tar,-1166.09455644783,-108.35686334735917,2149.4941729738325,-5863.59939249062,2656.403184740659,0.3484092296539192,2.418211522655355,1.2349732111383245,2.7375709656263654,0.0131507282864483,0.0061346593565228,0.0047409845269635,-0.3036197368105393,0.0235327879822943,0.3271525247928336,-1159.124679623496,-6.969876824334051,CC(c1ccncn1)C(O)(Cn1cncn1)c1ccc(F)cc1F,test_full_structures
773,247,13,data/moses_wfns/archive_0_0_2.tar,-1166.0754961270804,-108.35585533808968,2151.663876271642,-5867.38141431505,2658.0340195854524,-0.8492858142914773,0.6808910529732098,-1.4603049969640876,1.8213702821046545,0.0102529942950535,0.0072990726716771,0.0049919606860714,-0.3203446577785115,0.0233846752399147,0.3437293330184262,-1159.124679623496,-6.95081650358452,CC(c1ccncn1)C(O)(Cn1cncn1)c1ccc(F)cc1F,test_full_structures
774,247,14,data/moses_wfns/archive_0_0_2.tar,-1166.110237547903,-108.39919540070925,2132.077025059649,-5828.208116625532,2638.455020180902,1.4411416869128937,2.3990005453197294,0.3799893968964458,2.824267147412975,0.012795651481242,0.0057192388225131,0.0047355903998584,-0.3237071442425466,0.0208976383364667,0.3446047825790133,-1159.124679623496,-6.9855579244067485,CC(c1ccncn1)C(O)(Cn1cncn1)c1ccc(F)cc1F,test_full_structures
775,248,0,data/moses_wfns/archive_0_0_2.tar,-1162.5849999004242,-90.63490491944935,1362.134673684687,-4298.485924524888,1864.4206967954287,-3.402977822264777,-3.389991442103897,-0.6357124718338949,4.845248227202477,0.0201985571888278,0.012150328764448,0.0077560258163698,-0.2617401320230191,0.008758775526111,0.2704989075491301,-1157.4857514397045,-5.099248460719764,COc1c(C(C)=O)c(O)c(SC)c2occc12,train_full
776,249,0,data/moses_wfns/archive_0_0_2.tar,-804.4416426554071,-79.64707407444044,1354.5226402811377,-3779.626151000435,1700.334722442473,3.685140733177077,-2.1171187461716854,-2.252213856258088,4.8098774686090895,0.0323232888251906,0.0056582802784556,0.0055543272090435,-0.2913733616594388,0.0314036144395903,0.322776976099029,-797.8359758934207,-6.605666761986413,Cc1cc(C(=O)Nc2c(C)cccc2C)ccc1N,"train_large,test_full_conformations"
777,249,1,data/moses_wfns/archive_0_0_2.tar,-804.4443096491664,-79.62796753389316,1356.137166918011,-3783.040656605861,1702.1131115207547,3.888787531393644,-3.008377867260431,-1.714361250530381,5.206922349513691,0.0342576590368444,0.0056527499580447,0.0055001553123757,-0.2868078549420013,0.0360229066161775,0.3228307615581788,-797.8359758934207,-6.608333755745662,Cc1cc(C(=O)Nc2c(C)cccc2C)ccc1N,"train_full,test_large_conformations"
778,250,0,data/moses_wfns/archive_0_0_2.tar,-990.3196112480044,-94.86061586663185,1768.2826554587418,-4859.124413016625,2195.408193435449,-1.48483604861057,-2.835182751638284,0.5552258443969298,3.248272627832671,0.0158812617495153,0.0076315571669009,0.0053307847631882,-0.3021784318228084,-0.0232108284131857,0.2789676034096227,-983.5774583994464,-6.742152848558135,CC(=O)Nc1cccc2c(=O)n(C)c3ccccc3c(=O)c12,train_full
779,251,0,data/moses_wfns/archive_0_0_2.tar,-857.7150191766459,-81.73916785846112,1301.3828151625664,-3747.43740824668,1670.0973752665925,4.477359828080411,-0.5545762214012618,-0.8610916424942099,4.593014765078088,0.0410019898310373,0.0054944406259398,0.004984768148044,-0.31483406635589,-0.0303256203172159,0.2845084460386741,-851.9513651070222,-5.763654069623726,Cn1c(=O)oc2ccc(C(=O)c3ccccc3)cc21,test_full_conformations
780,251,1,data/moses_wfns/archive_0_0_2.tar,-857.7088294555144,-81.71621948439737,1310.2574325408443,-3765.0687458266175,1678.8376514825986,3.6736843316669847,-3.608421396624052,0.7007163838700994,5.196889934852744,0.030009571139782,0.0062589577365395,0.0053364951509296,-0.3022993116372254,-0.0278933249401177,0.2744059866971077,-851.9513651070222,-5.757464348492249,Cn1c(=O)oc2ccc(C(=O)c3ccccc3)cc21,train_full
781,252,0,data/moses_wfns/archive_0_0_2.tar,-890.5488865240504,-86.02174751130617,1469.8570402724752,-4127.89661358014,1853.5374153497853,3.4807624615093635,0.9546065729377108,0.7409461409895097,3.684559974596132,0.0358930439342417,0.0047529679370551,0.004550206724451,-0.2881392335432073,0.0329298331045965,0.3210690666478038,-884.2995419305191,-6.249344593531305,OCC(Cc1ccccc1)Nc1ncnc2[nH]cnc12,test_full_structures
782,252,1,data/moses_wfns/archive_0_0_2.tar,-890.5449830377427,-86.00593682682184,1481.0196574588233,-4150.366966972277,1864.832588239152,2.052122099949142,2.654475722638223,-0.6170541162913723,3.411480947859378,0.0162697915520528,0.0071473713741709,0.0055577150884436,-0.2835531958469127,0.0334385633126017,0.3169917591595144,-884.2995419305191,-6.245441107223542,OCC(Cc1ccccc1)Nc1ncnc2[nH]cnc12,test_full_structures
783,252,2,data/moses_wfns/archive_0_0_2.tar,-890.552144074185,-86.01703323342862,1520.350991467454,-4228.805518397702,1903.946016200683,0.4473811082617377,-0.0159698425714374,3.2629864683281027,3.2935521226167896,0.0156734478997343,0.0084016749868381,0.0065996671566427,-0.2862953483237449,0.0322345587379426,0.3185299070616875,-884.2995419305191,-6.252602143665854,OCC(Cc1ccccc1)Nc1ncnc2[nH]cnc12,test_full_structures
784,252,3,data/moses_wfns/archive_0_0_2.tar,-890.5538019396997,-86.0452014675292,1469.3283037494928,-4126.494406611073,1852.6827243017285,3.161550498667106,2.362325846561889,-0.408501626204631,3.967727125139581,0.0352282343876362,0.0047328408344442,0.0045133956375507,-0.2865964225589547,0.0336197434353171,0.3202161659942718,-884.2995419305191,-6.254260009180598,OCC(Cc1ccccc1)Nc1ncnc2[nH]cnc12,test_full_structures
785,252,4,data/moses_wfns/archive_0_0_2.tar,-890.5537155451001,-86.04990700193747,1496.0379537333306,-4180.177962557138,1879.66104703146,2.0740059806606355,1.9988004855611845,-0.6227714914722372,2.946955805485767,0.0151572934385912,0.0080103426837755,0.0059803691087307,-0.2840891511951002,0.0331294239003665,0.3172185750954667,-884.2995419305191,-6.254173614580964,OCC(Cc1ccccc1)Nc1ncnc2[nH]cnc12,test_full_structures
786,252,5,data/moses_wfns/archive_0_0_2.tar,-890.5570865660831,-86.00487811140357,1471.851694949443,-4131.498408761454,1855.119905543788,1.6323806940323342,0.5305271997293062,0.3140502836803541,1.7449221818126492,0.0285131008826863,0.005367688181684,0.0046456777016855,-0.2827445568996458,0.0346872804185403,0.3174318373181861,-884.2995419305191,-6.257544635563932,OCC(Cc1ccccc1)Nc1ncnc2[nH]cnc12,test_full_structures
787,252,6,data/moses_wfns/archive_0_0_2.tar,-890.5549005530426,-86.02563186154866,1524.9574566450517,-4238.469799719902,1909.009740224236,2.2179750400319023,3.2312473114206552,0.8674623071915234,4.014083123225747,0.0209752764115203,0.0069108082285157,0.0065869603283129,-0.2843061707154798,0.0356036326031146,0.3199098033185944,-884.2995419305191,-6.255358622523431,OCC(Cc1ccccc1)Nc1ncnc2[nH]cnc12,test_full_structures
788,253,0,data/moses_wfns/archive_0_0_2.tar,-1157.3144248561005,-91.19980430986276,1391.639336538108,-4345.253862743928,1887.5233067676031,0.1802029178347998,3.3654726790674045,-2.577905399016903,4.243168119627811,0.0450616960463169,0.0056903170794898,0.0053298255801567,-0.2994156318877751,0.0380935878104464,0.3375092196982215,-1152.0358289207293,-5.278595935371186,Cc1cc(N2CCN(S(C)(=O)=O)CC2)ncn1,train_full
789,253,1,data/moses_wfns/archive_0_0_2.tar,-1157.2951900500736,-91.16412580580416,1386.995084462375,-4335.479242243846,1882.3764883109789,0.9601530835859172,5.330416328182489,1.9257010471338225,5.748352520384108,0.0423637834085542,0.0056253492176288,0.0052446427782583,-0.304998318186002,0.0369912581718336,0.3419895763578355,-1152.0358289207293,-5.25936112934437,Cc1cc(N2CCN(S(C)(=O)=O)CC2)ncn1,test_full_conformations
790,253,2,data/moses_wfns/archive_0_0_2.tar,-1157.3194715961336,-91.19235202288604,1389.1758467637796,-4340.156294302575,1884.876483815741,1.134160358985287,4.867482577801851,-3.76680214634155,6.258394744244046,0.0402072640434423,0.005769013520562,0.0053278940361771,-0.3032475706915782,0.0354066574402091,0.3386542281317873,-1152.0358289207293,-5.2836426754042805,Cc1cc(N2CCN(S(C)(=O)=O)CC2)ncn1,train_full
791,253,3,data/moses_wfns/archive_0_0_2.tar,-1157.3201511846246,-91.1818132147366,1400.7444482465935,-4363.231019264555,1896.3723592364183,-1.3151618056905423,-2.0420851232551014,5.891429296381319,6.372495694782939,0.0347498556229113,0.00619471666484,0.0059186439454258,-0.300659291386239,0.0378634849022802,0.3385227762885192,-1152.0358289207293,-5.284322263895319,Cc1cc(N2CCN(S(C)(=O)=O)CC2)ncn1,train_full