,MOSES id,CONFORMER id,archive name,DFT TOTAL ENERGY,DFT XC ENERGY,DFT NUCLEAR REPULSION ENERGY,DFT ONE-ELECTRON ENERGY,DFT TWO-ELECTRON ENERGY,DFT DIPOLE X,DFT DIPOLE Y,DFT DIPOLE Z,DFT TOTAL DIPOLE,DFT ROT CONSTANT A,DFT ROT CONSTANT B,DFT ROT CONSTANT C,DFT HOMO,DFT LUMO,DFT HOMO-LUMO GAP,DFT ATOMIC ENERGY,DFT FORMATION ENERGY,SMILES,SPLITS
885,277,0,data/moses_wfns/archive_0_0_2.tar,-1031.842017198921,-100.7451573746095,1798.0925863017687,-4970.532869843737,2241.3705968137965,-3.078259721785457,4.9520202267128175,1.609762418395209,6.048927366419367,0.0201341282331473,0.0026559378581714,0.0023589617816519,-0.2924528779264744,0.0122652410478277,0.3047181189743021,-1024.0050513618194,-7.836965837101616,CNC(=O)c1cccc(NC(=O)Cc2cccc3ccccc23)c1,train_full
886,277,1,data/moses_wfns/archive_0_0_2.tar,-1031.840165531479,-100.74775475792464,1826.7267895775144,-5028.212421576191,2270.420812952235,-1.0010434872340412,-5.135944355972788,2.6988193356451395,5.887583400465296,0.020749490520619,0.0029231138791646,0.0027371965706037,-0.2884746287779455,0.0125166836448106,0.3009913124227561,-1024.0050513618194,-7.835114169659619,CNC(=O)c1cccc(NC(=O)Cc2cccc3ccccc23)c1,train_full
887,277,2,data/moses_wfns/archive_0_0_2.tar,-1031.8516667769632,-100.71377896088148,1827.918129923037,-5030.507658921126,2271.4797493278634,-1.7165345499737974,-1.708806824491112,5.08623359388488,5.6334965870446965,0.0214146348730949,0.002827831777191,0.0026845064153863,-0.2866357777753931,0.0145901857196216,0.3012259634950147,-1024.0050513618194,-7.846615415143788,CNC(=O)c1cccc(NC(=O)Cc2cccc3ccccc23)c1,test_full_conformations
888,277,3,data/moses_wfns/archive_0_0_2.tar,-1031.8513167020064,-100.7007410631606,1858.9400271439624,-5093.348295304054,2303.2859404764445,1.5318920442710182,1.318716309305506,-5.23723091185975,5.613759307618067,0.0141706522736664,0.0035581475176237,0.0033234770035816,-0.2816356950444206,0.0200619710273474,0.301697666071768,-1024.0050513618194,-7.846265340187074,CNC(=O)c1cccc(NC(=O)Cc2cccc3ccccc23)c1,train_full
889,277,4,data/moses_wfns/archive_0_0_2.tar,-1031.8529118903955,-100.73286786658043,1865.7212887590365,-5106.211694410706,2309.398643879076,-4.547018581428247,-3.117947568834736,-0.5900804037777042,5.5448327210817325,0.0133349621502979,0.0037710057407708,0.0034321360828277,-0.289599751203503,0.0142244517589854,0.3038242029624884,-1024.0050513618194,-7.847860528576348,CNC(=O)c1cccc(NC(=O)Cc2cccc3ccccc23)c1,train_full
890,277,5,data/moses_wfns/archive_0_0_2.tar,-1031.8546252180347,-100.70927088552826,1829.60552737548,-5034.192029889766,2273.4692971838067,1.537823744234922,-0.632153797521822,1.1416790950406486,2.016916321543065,0.0198407562675427,0.0029671963629898,0.0027612987717742,-0.2811493265336873,0.0158430365827046,0.2969923631163919,-1024.0050513618194,-7.849573856215329,CNC(=O)c1cccc(NC(=O)Cc2cccc3ccccc23)c1,train_full
891,278,0,data/moses_wfns/archive_0_0_2.tar,-986.717607480356,-93.40572424057696,1617.5798526910223,-4554.7008061543065,2043.8334681644703,-1.0124230432801624,2.374773187962884,3.1004463655002863,4.034515556814225,0.0241850237003108,0.0042532978926412,0.0037368001783486,-0.290180570742972,0.0248894313800901,0.3150700021230621,-980.232976553522,-6.484630926833916,COc1ccnc(N2CCN(C(=O)c3ccco3)CC2)n1,test_full_scaffolds
892,278,1,data/moses_wfns/archive_0_0_2.tar,-986.7237052514514,-93.40847571662454,1629.7299456538412,-4579.092765618987,2056.072438247919,0.1128345610756625,-1.2231193351410032,-2.1975550031503115,2.5175385871997817,0.0288343528101035,0.0042751334780834,0.0038203938980838,-0.2872817531013556,0.0241679604191094,0.311449713520465,-980.232976553522,-6.490728697929285,COc1ccnc(N2CCN(C(=O)c3ccco3)CC2)n1,test_full_scaffolds
893,278,2,data/moses_wfns/archive_0_0_2.tar,-986.7110731526288,-93.4106411193635,1631.3040870910918,-4582.2587506584205,2057.679471957104,0.0759973777777155,-0.8602688011795369,-2.7250859884645453,2.8586590661073514,0.020325089315029,0.0045223618200625,0.0043460915643331,-0.2901893465458992,0.0272262239569933,0.3174155705028925,-980.232976553522,-6.478096599106607,COc1ccnc(N2CCN(C(=O)c3ccco3)CC2)n1,test_full_scaffolds
894,278,3,data/moses_wfns/archive_0_0_2.tar,-986.722753693006,-93.39909100828028,1617.0821586861832,-4553.610686565695,2043.229112340744,-0.4591079941190089,4.062416028066614,0.7194002274816971,4.151089112830176,0.0225580141991558,0.0043765045284619,0.0038072352396469,-0.2900674260537635,0.0242746898225112,0.3143421158762747,-980.232976553522,-6.4897771394839765,COc1ccnc(N2CCN(C(=O)c3ccco3)CC2)n1,test_full_scaffolds
895,278,4,data/moses_wfns/archive_0_0_2.tar,-986.7032451592586,-93.38842729270144,1647.1735586706402,-4614.075770832919,2073.6121142412667,-0.6188811263356693,1.7657721608228416,4.286732648214002,4.677290024120303,0.0169069301413408,0.0053744431331928,0.0046766290964439,-0.2896085905001294,0.0246368802801087,0.314245470780238,-980.232976553522,-6.4702686057364645,COc1ccnc(N2CCN(C(=O)c3ccco3)CC2)n1,test_full_scaffolds
896,278,5,data/moses_wfns/archive_0_0_2.tar,-986.6903997408888,-93.42184534606928,1652.1125594923865,-4623.889668459569,2078.534035801898,0.1840111734350044,3.258790253178073,-0.8517531835366212,3.373285862748977,0.0189137914714426,0.0050785091352207,0.0048551633103283,-0.292392093665822,0.030301997332921,0.3226940909987429,-980.232976553522,-6.457423187366658,COc1ccnc(N2CCN(C(=O)c3ccco3)CC2)n1,test_full_scaffolds
897,278,6,data/moses_wfns/archive_0_0_2.tar,-986.7128081160384,-93.43779098992988,1613.8213439237863,-4547.146365198063,2040.074941377588,-0.240115262053552,3.159868167845726,-3.436361277463913,4.674505429079013,0.0252607365409638,0.0040651878605834,0.0036678215828392,-0.2933931017737872,0.0257104924648364,0.3191035942386236,-980.232976553522,-6.47983156251621,COc1ccnc(N2CCN(C(=O)c3ccco3)CC2)n1,test_full_scaffolds
898,279,0,data/moses_wfns/archive_0_0_2.tar,-988.9183458669462,-95.2966396202397,1714.1028624631194,-4747.770244752435,2140.072812222756,0.4939921366617283,-1.504220918669393,1.7510689817012015,2.36070993176254,0.0202650625753748,0.0039616355913533,0.003780453969735,-0.2912609256147604,0.012329985981116,0.3035909115958764,-981.8574836566904,-7.060862210255664,COc1ccnc(N2CCN(C(=O)c3ccccc3)CC2)n1,test_full_structures
899,279,1,data/moses_wfns/archive_0_0_2.tar,-988.9249897398122,-95.29430259439116,1705.5951010264062,-4730.707380379028,2131.5089353243466,-1.447014043410269,1.1283360227394932,-3.5424801446458805,3.989505908912583,0.0220185485559704,0.0038326726078359,0.0034045948764949,-0.2890183220434856,0.0146596572220669,0.3036779792655525,-981.8574836566904,-7.067506083121657,COc1ccnc(N2CCN(C(=O)c3ccccc3)CC2)n1,test_full_structures
900,279,2,data/moses_wfns/archive_0_0_2.tar,-988.9274089893904,-95.28943370263288,1712.690751810189,-4744.945481645487,2138.644314891058,-0.9900387650859528,-3.988756209792232,-1.5176124613086144,4.38103873987074,0.0193142094390386,0.0040167274507911,0.0036229322896437,-0.2909507838225508,0.0152567433898894,0.3062075272124402,-981.8574836566904,-7.069925332699995,COc1ccnc(N2CCN(C(=O)c3ccccc3)CC2)n1,test_full_structures
901,279,3,data/moses_wfns/archive_0_0_2.tar,-988.9192241919366,-95.26619470404822,1736.9944564866023,-4793.546832645978,2162.927701082354,-0.1404174669132506,2.9645751450121898,-0.5026817840458356,3.010168073621452,0.018450705968163,0.0044340790942451,0.0042021140014803,-0.2913886294459233,0.0147690455818211,0.3061576750277444,-981.8574836566904,-7.061740535246031,COc1ccnc(N2CCN(C(=O)c3ccccc3)CC2)n1,test_full_structures
902,279,4,data/moses_wfns/archive_0_0_2.tar,-988.9251484944936,-95.28816813450965,1706.1371826150455,-4731.855826837639,2132.109104333219,0.1141616044189057,-1.400728269058835,1.942534012276948,2.397605252020615,0.0212205616051117,0.0037696323117482,0.0035886135238336,-0.2901986893991605,0.0114598668138561,0.3016585562130165,-981.8574836566904,-7.067664837803136,COc1ccnc(N2CCN(C(=O)c3ccccc3)CC2)n1,test_full_structures
903,279,5,data/moses_wfns/archive_0_0_2.tar,-988.9230077724412,-95.27830938006154,1707.9180972209222,-4735.242822726475,2133.7076361381046,-2.67042307908883,2.2805838963638574,-2.789555374883826,4.484845763148122,0.0203217814574269,0.0040189556225828,0.0034465747475445,-0.2894073497658342,0.0151715729027951,0.3045789226686293,-981.8574836566904,-7.065524115750577,COc1ccnc(N2CCN(C(=O)c3ccccc3)CC2)n1,test_full_structures
904,279,6,data/moses_wfns/archive_0_0_2.tar,-988.874820042721,-95.32813226560638,1750.2320224766147,-4819.905444768097,2176.154787826091,-1.2664278614340758,-3.804266525287757,-2.0311119630785583,4.4946300326280815,0.0134809232088422,0.0055095848489084,0.0044816017466547,-0.2896432162955612,0.0174241238444912,0.3070673401400524,-981.8574836566904,-7.017336386030479,COc1ccnc(N2CCN(C(=O)c3ccccc3)CC2)n1,test_full_structures
905,279,7,data/moses_wfns/archive_0_0_2.tar,-988.93586144188,-95.27264990301018,1700.6181822842825,-4720.758589129362,2126.5046855495884,-1.1380988812915838,0.1937657527470911,-3.716417540594391,3.8916029559260616,0.0206772825971923,0.0038190950896879,0.0034369423133456,-0.2923667168042297,0.0107427228072025,0.3031094396114322,-981.8574836566904,-7.078377785189332,COc1ccnc(N2CCN(C(=O)c3ccccc3)CC2)n1,test_full_structures
906,280,0,data/moses_wfns/archive_0_0_2.tar,-1004.9470023802788,-96.155039963213,1717.3291252926826,-4776.863019262801,2150.767795009,-1.6888426328683737,-1.1545665444194595,-0.5918026260171553,2.129658116282347,0.0247527782988028,0.0038115799885894,0.0034869090729863,-0.2844858685193678,0.0019895139527674,0.2864753824721352,-998.0793058882326,-6.867696492046207,COc1ccnc(N2CCN(C(=O)c3ccccn3)CC2)n1,train_full
907,280,1,data/moses_wfns/archive_0_0_2.tar,-1004.9447485576554,-96.16147727027058,1720.999591502547,-4784.009137559933,2154.25219805307,-0.0077585606080251,2.476079531375405,-2.899931020302954,3.813217796490817,0.0187720391854717,0.0042373833897464,0.0035932555004258,-0.2850740948547817,0.0027607434925439,0.2878348383473256,-998.0793058882326,-6.865442669422805,COc1ccnc(N2CCN(C(=O)c3ccccn3)CC2)n1,train_full
908,280,2,data/moses_wfns/archive_0_0_2.tar,-1004.9627966329437,-96.12185527145668,1708.343390356716,-4758.772078707324,2141.6137356414188,-1.389519536983066,-1.7160272097222344,-3.200950031113738,3.88864951234381,0.0216272106672696,0.0039059301443654,0.0033530493559883,-0.283340568179525,-0.0003785617908976,0.2829620063886274,-998.0793058882326,-6.883490744711025,COc1ccnc(N2CCN(C(=O)c3ccccn3)CC2)n1,train_full
909,280,3,data/moses_wfns/archive_0_0_2.tar,-1004.9463748201762,-96.13908954592746,1713.1508795582258,-4768.4759517947,2146.543945786281,-2.107064003675332,-1.04879702945388,-0.8430298652566515,2.5000786544207463,0.0282747542622979,0.0036591455484004,0.0033095542597723,-0.283603014241423,-0.0001803751190693,0.2834226391223536,-998.0793058882326,-6.86706893194355,COc1ccnc(N2CCN(C(=O)c3ccccn3)CC2)n1,test_full_conformations
910,280,4,data/moses_wfns/archive_0_0_2.tar,-1004.9511779688028,-96.12394929728282,1732.047659847249,-4806.312833591286,2165.4643042165308,-1.3634659469803083,-0.4894138006082443,-1.529505448031791,2.106644766532708,0.0193215313661966,0.0042625644950641,0.0039575561354857,-0.2874573419763844,0.0044965243008969,0.2919538662772813,-998.0793058882326,-6.871872080570142,COc1ccnc(N2CCN(C(=O)c3ccccn3)CC2)n1,train_full
911,280,5,data/moses_wfns/archive_0_0_2.tar,-1004.970883218997,-96.13605870259067,1735.156638055875,-4812.674204916361,2168.709491846464,-1.577330502916598,-1.4027347831540908,-0.4129261085324663,2.1508473582309944,0.0190806789581064,0.0042470779318182,0.003991116742005,-0.2831389215350295,0.007409653213703,0.2905485747487325,-998.0793058882326,-6.891577330764335,COc1ccnc(N2CCN(C(=O)c3ccccn3)CC2)n1,train_full
912,281,0,data/moses_wfns/archive_0_0_2.tar,-1774.0288923956064,-122.85812509734008,1734.960515808138,-5879.846762387758,2493.734963302267,-5.805481124521452,-0.0296242489888224,-0.5010274227904487,5.82713627450835,0.0234656324105153,0.0025794087412177,0.0023286969417409,-0.3032691014888307,-0.0077709742764402,0.2954981272123905,-1768.1987166440124,-5.83017575159397,NC(=O)c1ccccc1NC(=O)Nc1ccc(Cl)c(Cl)c1,train_full
913,282,0,data/moses_wfns/archive_0_0_2.tar,-1220.763136087051,-95.37644761465758,1433.6695170789844,-4518.179257507772,1959.1419032045765,0.1788729083930764,5.674626182089235,1.828214052909772,5.964540589774406,0.017493862451997,0.0080693135036016,0.0060674808262569,-0.3245459215770448,-0.0037421075477265,0.3208038140293183,-1215.6892011530983,-5.073934933952614,Cc1ccc(NS(=O)(=O)c2ccc(F)cc2)cn1,train_full
914,282,1,data/moses_wfns/archive_0_0_2.tar,-1220.7777480717798,-95.36306548794302,1435.299125787071,-4521.557275283999,1960.861883554664,1.5013802262511515,2.199601765090161,2.378978295592077,3.5709842116234416,0.0162358450804556,0.0084561108693896,0.0063776260327521,-0.3253395455123535,0.0059338387683704,0.3312733842807239,-1215.6892011530983,-5.088546918681459,Cc1ccc(NS(=O)(=O)c2ccc(F)cc2)cn1,train_full
915,282,2,data/moses_wfns/archive_0_0_2.tar,-1220.7734210996712,-95.36910760123531,1442.1043265005114,-4535.036425476625,1967.5465918578625,1.8368950323117403,1.3916693904510575,-2.734014901224098,3.575718743436819,0.0161501625860158,0.0087798479346569,0.0065440919999607,-0.3262516508769095,0.0061728897117496,0.3324245405886591,-1215.6892011530983,-5.08421994657283,Cc1ccc(NS(=O)(=O)c2ccc(F)cc2)cn1,test_full_conformations
916,283,0,data/moses_wfns/archive_0_0_2.tar,-856.1108105007527,-83.42612421763339,1350.4081937582123,-3840.693595112712,1717.6199836887215,-2.616038233141561,-0.9618415321163748,-2.231362549402687,3.5704024979040185,0.0381787574881702,0.0042959353130598,0.0038718794420667,-0.2863187973919059,0.0059082577060387,0.2922270550979446,-849.8459244339706,-6.264886066782083,O=C(Nc1ccccc1)Nc1ccc2ncccc2c1,train_full
917,283,1,data/moses_wfns/archive_0_0_2.tar,-856.1084866619278,-83.39035967056552,1333.1804474899686,-3806.1118382110967,1700.232329674093,-0.6813445592746254,-2.806847940110301,4.9610493025616025,5.740612854896378,0.0568428754228614,0.0037381673668824,0.0035138183272589,-0.2895147823476815,6.502546945766286e-05,0.2895798078171391,-849.8459244339706,-6.262562227957233,O=C(Nc1ccccc1)Nc1ccc2ncccc2c1,train_full
918,283,2,data/moses_wfns/archive_0_0_2.tar,-856.1079779184874,-83.40533285466644,1333.518722690798,-3806.754238454821,1700.551953999512,-1.1063128049037627,4.6601813868412325,-3.068493856557764,5.688310217304278,0.0576518665563903,0.0037310965308729,0.0035085488013931,-0.2889615945601314,-0.0003651968472243,0.288596397712907,-849.8459244339706,-6.262053484516855,O=C(Nc1ccccc1)Nc1ccc2ncccc2c1,test_full_conformations
919,284,0,data/moses_wfns/archive_0_0_2.tar,-1039.3090782464703,-93.69405228746776,1425.8770952870846,-4253.6996140404935,1882.2247156305543,0.2296451915574272,3.500500293741524,-5.061753920848037,6.1585381362552605,0.032586745643605,0.0034929380591841,0.0033625864069217,-0.3126446865847087,0.0185937288923303,0.3312384154770389,-1033.7875551435027,-5.521523102967649,O=C(Nc1cccnc1)Nc1cccc(C(F)(F)F)c1,train_full
920,285,0,data/moses_wfns/archive_0_0_2.tar,-911.7937708114456,-86.32539959808052,1393.5594168641146,-4004.735769332541,1785.7249508940508,-1.376337482742876,7.586477236629157,-3.248871617267784,8.366845792398923,0.0308436642660574,0.0052223371914315,0.0044843878904958,-0.3225459751332694,-0.0366827747064805,0.2858632004267888,-905.9712866810368,-5.822484130408839,O=C(Nc1cccnc1)c1cc(=O)c2ccccc2o1,test_full_scaffolds
921,286,0,data/moses_wfns/archive_0_0_2.tar,-1255.3630240204022,-97.22851550825057,1435.5363217640268,-4564.087239155357,1970.4361551827287,2.6930951540290096,1.155487000715192,0.4117852771712074,2.9593037748719366,0.0366748285089703,0.0044626971276652,0.0042028326046966,-0.3146914186974728,-0.011867142271291,0.3028242764261818,-1249.9577043788065,-5.405319641595952,CC(Oc1ccc(Cl)cc1)c1ccnc2ncnn12,test_full_scaffolds
922,286,1,data/moses_wfns/archive_0_0_2.tar,-1255.3778298834943,-97.22058358446336,1461.575685583161,-4616.536183350694,1996.823076449244,-0.125994584115142,4.797713566293117,-1.835572036461513,5.13840975404442,0.0241688824092574,0.0056240934954275,0.004847134291872,-0.3068394445817459,-0.0122949981613704,0.2945444464203754,-1249.9577043788065,-5.420125504688258,CC(Oc1ccc(Cl)cc1)c1ccnc2ncnn12,test_full_scaffolds
923,286,2,data/moses_wfns/archive_0_0_2.tar,-1255.3828008534467,-97.20306755375135,1459.140392437641,-4611.741074441041,1994.4407610961905,1.0111117143389134,-4.964855472402121,0.3777539827612742,5.080830132193623,0.0242714104556301,0.0055057443550664,0.0047544849996302,-0.3064036866145718,-0.0130852509912356,0.2933184356233362,-1249.9577043788065,-5.425096474640441,CC(Oc1ccc(Cl)cc1)c1ccnc2ncnn12,test_full_scaffolds
924,286,3,data/moses_wfns/archive_0_0_2.tar,-1255.38867102467,-97.20657306830068,1440.6813068730082,-4574.522397884308,1975.6784159561528,1.8531768086559728,1.090795320750517,3.8272763491981583,4.39000489396574,0.0248931604253508,0.0048194669186152,0.0045855570599818,-0.3112715149452293,-0.0110183064183234,0.3002532085269059,-1249.9577043788065,-5.430966645863691,CC(Oc1ccc(Cl)cc1)c1ccnc2ncnn12,test_full_scaffolds
925,286,4,data/moses_wfns/archive_0_0_2.tar,-1255.3689019378985,-97.18506959448744,1450.164069078372,-4593.643196659924,1985.3148520034308,0.9781317383861,0.6687465871972714,-3.935189763883963,4.109705849973127,0.0270379012910539,0.0049837336814421,0.0047627846676442,-0.3074399306205597,-0.0106411639067125,0.2967987667138472,-1249.9577043788065,-5.411197559091988,CC(Oc1ccc(Cl)cc1)c1ccnc2ncnn12,test_full_scaffolds
926,287,0,data/moses_wfns/archive_0_0_2.tar,-1807.5163675909137,-128.30186313872537,2092.72572525898,-6639.194188520706,2867.278663914237,-2.8540865895439684,-1.3778481514232936,2.2843245108494235,3.906713997704818,0.0163803234442408,0.0040768603520832,0.0039713452069646,-0.3400973783753565,-0.0007950821213212,0.3393022962540353,-1801.6129361876503,-5.903431403263312,NS(=O)(=O)c1cc(C2(O)NC(=O)c3ccccc32)ccc1Cl,train_full
927,287,1,data/moses_wfns/archive_0_0_2.tar,-1807.512924313344,-128.35418769772016,2108.8475577931868,-6670.905978111849,2882.925063357252,-0.2965367828473914,-0.1954243934064083,-2.894592757629796,2.9162976510710648,0.0157087590640058,0.004629016920286,0.0040802742429659,-0.3437733925053917,-0.0129909423300498,0.3307824501753418,-1801.6129361876503,-5.899988125693426,NS(=O)(=O)c1cc(C2(O)NC(=O)c3ccccc32)ccc1Cl,train_full
928,287,2,data/moses_wfns/archive_0_0_2.tar,-1807.5162106891407,-128.30715503458055,2117.592716619954,-6688.625581925271,2891.848836875591,0.2059631621484335,-5.099600442434498,-7.409868704213517,8.99747185104367,0.014024299394413,0.0048349535559131,0.0045236537687597,-0.3404763612701776,-0.006647976133361,0.3338283851368166,-1801.6129361876503,-5.903274501491069,NS(=O)(=O)c1cc(C2(O)NC(=O)c3ccccc32)ccc1Cl,train_full
929,287,3,data/moses_wfns/archive_0_0_2.tar,-1807.5116624302384,-128.31773879866716,2103.3088162386266,-6659.943246571021,2877.465750212322,-0.4069786829545829,7.306305875172639,-4.546853436652822,8.615196652680845,0.0149652354153207,0.0046981550019579,0.0041508535466486,-0.3379198379933784,-0.0162381996572013,0.3216816383361771,-1801.6129361876503,-5.898726242588282,NS(=O)(=O)c1cc(C2(O)NC(=O)c3ccccc32)ccc1Cl,test_full_conformations
930,287,4,data/moses_wfns/archive_0_0_2.tar,-1807.5166963967745,-128.29849967422874,2110.929296353187,-6675.196943413232,2885.0746985619194,-0.9634251840313208,1.9749080887066688,-7.613636500269702,7.924387093163981,0.014455070782532,0.0048243641943496,0.0042893142497111,-0.3444222021145179,-0.0131992910940845,0.3312229110204334,-1801.6129361876503,-5.90376020912413,NS(=O)(=O)c1cc(C2(O)NC(=O)c3ccccc32)ccc1Cl,train_full