,MOSES id,CONFORMER id,archive name,DFT TOTAL ENERGY,DFT XC ENERGY,DFT NUCLEAR REPULSION ENERGY,DFT ONE-ELECTRON ENERGY,DFT TWO-ELECTRON ENERGY,DFT DIPOLE X,DFT DIPOLE Y,DFT DIPOLE Z,DFT TOTAL DIPOLE,DFT ROT CONSTANT A,DFT ROT CONSTANT B,DFT ROT CONSTANT C,DFT HOMO,DFT LUMO,DFT HOMO-LUMO GAP,DFT ATOMIC ENERGY,DFT FORMATION ENERGY,SMILES,SPLITS
513,162,0,data/moses_wfns/archive_0_0_1.tar,-878.767593163899,-83.11082273510466,1357.0463089512407,-3890.582707056087,1737.9000315854305,3.0806106864929688,1.9280662730749225,0.7708741709318282,3.715083948245791,0.0273646163603755,0.0067948013804875,0.0057135678783754,-0.3041238890266741,0.0171433171480515,0.3212672061747256,-872.9081216315165,-5.859471532382599,O=C1CC(c2ccccc2)Oc2cc(O)cc(O)c21,train_full
514,163,0,data/moses_wfns/archive_0_0_1.tar,-1126.6261084838836,-108.9466377256278,2227.573849459036,-5958.938031540407,2713.7242832141515,2.694031478927885,0.7819585467340529,-5.272957319939376,5.972716607722742,0.0099760528054306,0.004749805963727,0.0034046821577668,-0.2783725408560754,0.0265334720944489,0.3049060129505243,-1118.2185112420668,-8.407597241816802,Cc1oc2nc3c(c(NC(=O)CN4CCCC4=O)c2c1C)CCCC3,test_full_structures
515,163,1,data/moses_wfns/archive_0_0_1.tar,-1126.638744465944,-108.98348798755208,2244.828341321478,-5993.462913271761,2731.019294791683,3.214583007200391,-2.3171416674901955,4.647110510350204,6.107235504940683,0.0098295084005015,0.0050356085266215,0.0035986593772669,-0.2828220455325865,0.02944718863974,0.3122692341723265,-1118.2185112420668,-8.420233223877176,Cc1oc2nc3c(c(NC(=O)CN4CCCC4=O)c2c1C)CCCC3,test_full_structures
516,164,0,data/moses_wfns/archive_0_0_1.tar,-897.1888947751014,-84.72357660371776,1391.7678608298863,-3984.389328202974,1780.1789676161784,0.085224847057324,6.757996285503331,1.9410837356003767,7.031755338323787,0.0244136463221117,0.0058407376099762,0.005256344469144,-0.3309434724225659,-0.0238493383992708,0.3070941340232951,-891.1399168965229,-6.048977878578512,CCOC(=O)C1CN(Cc2ccccc2)C(=O)C1=O,"train_tiny,train_small,train_medium,test_large_conformations,test_full_conformations"
517,164,1,data/moses_wfns/archive_0_0_1.tar,-897.1915436268133,-84.72011128792269,1392.846265052197,-3986.6076075502974,1781.3127378856116,0.4354094870066778,-3.293078630997357,-3.307078372868014,4.687292998693191,0.0243566547716801,0.0059960211165202,0.0051552026828647,-0.3307022143711012,-0.0347298164376719,0.2959723979334293,-891.1399168965229,-6.051626730290423,CCOC(=O)C1CN(Cc2ccccc2)C(=O)C1=O,"train_tiny,train_small,train_medium,train_large,train_full"
518,164,2,data/moses_wfns/archive_0_0_1.tar,-897.1878314574201,-84.70247834229953,1383.3349042641692,-3967.445366693378,1771.6477318453258,0.7393388611130147,-1.3926626907545927,-4.55390090146272,4.819143569361125,0.0310295351444145,0.0053166010878264,0.0049867095710189,-0.3294408143542007,-0.0387547629587884,0.2906860513954123,-891.1399168965229,-6.047914560897198,CCOC(=O)C1CN(Cc2ccccc2)C(=O)C1=O,"train_tiny,train_small,train_medium,train_large,train_full"
519,164,3,data/moses_wfns/archive_0_0_1.tar,-897.1988765259275,-84.70203236504089,1386.1775173089777,-3972.670288344932,1774.0189505565772,-0.7220775785880013,5.43909630172996,0.3987617659938816,5.501288535880535,0.0266049741389706,0.0056132464798624,0.0053489924769237,-0.3369956172678229,-0.0309503962773484,0.3060452209904745,-891.1399168965229,-6.058959629404626,CCOC(=O)C1CN(Cc2ccccc2)C(=O)C1=O,"train_tiny,train_small,train_medium,train_large,train_full"
520,164,4,data/moses_wfns/archive_0_0_1.tar,-897.1965381167524,-84.74960058749366,1417.0753831200852,-4035.073811569909,1805.575046160961,1.1808196359151746,4.352302713114813,-1.4224855743469376,4.728672025883647,0.0269790441583995,0.0062971263522564,0.0056910276822822,-0.327731274272198,-0.0323011306873389,0.2954301435848591,-891.1399168965229,-6.056621220229545,CCOC(=O)C1CN(Cc2ccccc2)C(=O)C1=O,"train_large,train_full,test_tiny_conformations,test_small_conformations,test_medium_conformations"
521,165,0,data/moses_wfns/archive_0_0_1.tar,-901.8094022265414,-87.61292787579671,1534.4484066080852,-4272.7327168085285,1924.117688526404,2.2886681946313097,2.871640857750429,-2.274645664761524,4.319529629628319,0.0162876765259818,0.0053390553840331,0.0043387384194383,-0.2805066075216199,0.0638498189682101,0.34435642648983,-894.7743970331558,-7.035005193385587,COc1ccc(C2CNC(=O)C2)cc1OC1CCCC1,train_full
522,165,1,data/moses_wfns/archive_0_0_1.tar,-901.7908290805444,-87.64576402793838,1538.6157250854385,-4280.959910814193,1928.2293319369592,3.578919243660281,2.875458587093912,3.1054869151276305,5.542650450710646,0.0243044099673587,0.0045337060562911,0.0040971555261882,-0.2801326617277674,0.0583726237344502,0.3385052854622176,-894.7743970331558,-7.016432047388548,COc1ccc(C2CNC(=O)C2)cc1OC1CCCC1,test_full_conformations
523,166,0,data/moses_wfns/archive_0_0_1.tar,-1084.6828449470097,-104.9498546339178,1985.6815405917887,-5417.094573169168,2451.7073578472214,-3.876831155842437,-0.9143641429628256,1.0043746195453709,4.10787657716656,0.0166874072413896,0.0036237103874673,0.0030639107262478,-0.285815472677962,0.0215061133204422,0.3073215859984042,-1077.0199864191018,-7.662858527907701,O=C(Nc1ccccc1)c1c(O)n(-c2ccccc2)c2ncccc12,train_full
524,166,1,data/moses_wfns/archive_0_0_1.tar,-1084.716021826283,-104.95055644640382,1988.5717203164604,-5422.711736053262,2454.4015891300487,-2.9540763240887222,3.870465239979824,-1.9799719809430905,5.256173241794197,0.0139071960443735,0.0039186578087783,0.0031003086335964,-0.2892332704462923,0.015629499071056,0.3048627695173483,-1077.0199864191018,-7.696035407181171,O=C(Nc1ccccc1)c1c(O)n(-c2ccccc2)c2ncccc12,test_full_conformations
525,167,0,data/moses_wfns/archive_0_0_1.tar,-1002.2691055198812,-96.39622714524111,1708.229383024661,-4751.29980727468,2137.219161660868,0.7589272677712332,1.3461053568438013,-0.5230736590279804,1.6314338117923162,0.0226439072340062,0.004187081433746,0.0036958493148078,-0.301110492645158,-0.016729729023524,0.284380763621634,-995.6838669244722,-6.58523859540901,O=C(c1ccccn1)c1cnn2c(-c3ccncc3)ccnc12,train_full
526,167,1,data/moses_wfns/archive_0_0_1.tar,-1002.2592309607486,-96.31238883875712,1718.3149742322985,-4770.790094991284,2146.550794083224,-1.5482022177448287,5.254073661839767,-3.346720949131953,6.418937705136811,0.0246409178341223,0.0042046429688381,0.0040182733471003,-0.3128750365070442,-0.0183823654708504,0.2944926710361937,-995.6838669244722,-6.575364036276369,O=C(c1ccccn1)c1cnn2c(-c3ccncc3)ccnc12,train_full
527,167,2,data/moses_wfns/archive_0_0_1.tar,-1002.258922237122,-96.36532822572264,1726.830717502468,-4787.600278218079,2154.898732109946,-1.2749304643828596,-4.26509115044067,4.253623741547187,6.157090639679808,0.0228867987957642,0.0043116463486554,0.0040424074782135,-0.3101268316924061,-0.040681450181443,0.2694453815109631,-995.6838669244722,-6.575055312649852,O=C(c1ccccn1)c1cnn2c(-c3ccncc3)ccnc12,test_full_conformations
528,167,3,data/moses_wfns/archive_0_0_1.tar,-1002.2657999936488,-96.3831280129438,1734.7300098740398,-4804.2270978051465,2163.6367805184127,1.5358088757939763,-4.236533884291509,-1.3804808689854275,4.713030414218904,0.0245027723161016,0.0044126386465611,0.0040746247669075,-0.2987465949611023,-0.0269462000239507,0.2718003949371516,-995.6838669244722,-6.581933069176444,O=C(c1ccccn1)c1cnn2c(-c3ccncc3)ccnc12,train_full
529,168,0,data/moses_wfns/archive_0_0_1.tar,-1034.45023283536,-100.63490440023212,1934.969361266169,-5250.364268957512,2381.617017786046,-3.637007512925452,-2.5571778408626096,-1.3713974128487196,4.652710287869114,0.0134176367175919,0.0039244823983556,0.0032404337209094,-0.2838708178228243,0.0596134462148206,0.3434842640376449,-1026.4004903255795,-8.049742509780572,COc1ccc(C2CNC(=O)NC2)cc1OC1CC2CCC1C2,test_full_conformations
530,168,1,data/moses_wfns/archive_0_0_1.tar,-1034.4375290488415,-100.6614597657572,1941.9353218919584,-5264.197091203535,2388.52364646804,-4.048954562825016,-3.3229808403406005,-2.328456719903132,5.732185047043953,0.017645385707399,0.0035095789246271,0.0031153975702094,-0.2875874120434969,0.0587422576109516,0.3463296696544485,-1026.4004903255795,-8.037038723262185,COc1ccc(C2CNC(=O)NC2)cc1OC1CC2CCC1C2,train_full
531,169,0,data/moses_wfns/archive_0_0_1.tar,-1355.0940492342463,-111.47137287471946,2077.795884694483,-5981.476453525311,2660.093576905402,-0.6987886831516504,-1.6894285914509255,4.765013172522665,5.103706998214846,0.022484866496448,0.0042296580949651,0.0039741410347292,-0.3037677735797096,0.0241923408792765,0.3279601144589861,-1347.7712329595083,-7.322816274737988,Cc1ccc(S(=O)(=O)N2CCCC2C(=O)N2CCCC2)cc1,train_full
532,169,1,data/moses_wfns/archive_0_0_1.tar,-1355.0631324395567,-111.49266361054326,2090.7006100593007,-6007.113367563159,2672.878438919555,-0.6224313490505493,-3.280279024549173,5.454194174270159,6.394989081602932,0.0267530772999255,0.0040832986199771,0.0038237087756063,-0.3010020025133837,0.0270308970052417,0.3280328995186254,-1347.7712329595083,-7.291899480048414,Cc1ccc(S(=O)(=O)N2CCCC2C(=O)N2CCCC2)cc1,train_full
533,169,2,data/moses_wfns/archive_0_0_1.tar,-1355.0864095523766,-111.51159923810054,2120.689544171812,-6066.125229845015,2701.898198484159,5.924589271248983,-5.718889944854278,-5.215674737345106,9.74729312168942,0.0135543073613739,0.0057469241350001,0.0046910058508859,-0.301877337615663,-0.0008034153995618,0.3010739222161012,-1347.7712329595083,-7.3151765928682835,Cc1ccc(S(=O)(=O)N2CCCC2C(=O)N2CCCC2)cc1,train_full
534,169,3,data/moses_wfns/archive_0_0_1.tar,-1355.0727809460325,-111.5111362510127,2109.871836682533,-6045.723302549528,2692.325499497219,-2.227948284880466,4.011172000388705,1.942197226923912,4.98250784696573,0.0172079436773575,0.0049488550064284,0.0041652424605451,-0.3084653307756909,0.0301400239743008,0.3386053547499917,-1347.7712329595083,-7.301547986523929,Cc1ccc(S(=O)(=O)N2CCCC2C(=O)N2CCCC2)cc1,train_full
535,169,4,data/moses_wfns/archive_0_0_1.tar,-1355.082842177217,-111.47925827237724,2127.2447920829018,-6079.230853645548,2708.4209285668144,3.7126298261676287,1.805356294921422,5.28791075229428,6.7085715097918825,0.019067742077354,0.0050767919742467,0.0048378221044806,-0.3000191907512764,0.0063908288381616,0.306410019589438,-1347.7712329595083,-7.311609217708337,Cc1ccc(S(=O)(=O)N2CCCC2C(=O)N2CCCC2)cc1,train_full
536,169,5,data/moses_wfns/archive_0_0_1.tar,-1355.0806211220404,-111.46080327584583,2112.470248798658,-6049.63144415698,2693.57882948628,5.882293623861658,7.328740621764765,2.227705127930541,9.657871790173887,0.0137558066139452,0.0055430633005622,0.0046343375877752,-0.3050670004097104,6.822683251568706e-05,0.3051352272422261,-1347.7712329595083,-7.309388162532059,Cc1ccc(S(=O)(=O)N2CCCC2C(=O)N2CCCC2)cc1,train_full
537,169,6,data/moses_wfns/archive_0_0_1.tar,-1355.0735183184815,-111.46041035970514,2111.50021395031,-6048.161107297113,2693.084718712683,1.0712741277642273,-10.74316344048143,-0.185663690041304,10.798039635578004,0.011515174082845,0.0058203478789648,0.0048802959841268,-0.3035088641205049,0.0115240010417744,0.3150328651622793,-1347.7712329595083,-7.302285358973222,Cc1ccc(S(=O)(=O)N2CCCC2C(=O)N2CCCC2)cc1,test_full_conformations
538,170,0,data/moses_wfns/archive_0_0_1.tar,-1200.108774352501,-92.21902526561692,1352.846831763499,-4326.124702018096,1865.407508787717,-0.3608158262739268,-3.762804206368108,0.9805703064560838,3.905176267706061,0.0133697410866167,0.0121742646539641,0.0067188085271262,-0.2841788845729702,-0.0010235315604864,0.2831553530124838,-1194.9327962880595,-5.175978064441779,O=C1CN=C(c2ccc[nH]2)c2cc(Cl)ccc2N1,train_full
539,171,0,data/moses_wfns/archive_0_0_1.tar,-1066.5658773840962,-102.42453378784592,1975.926887088518,-5375.047118477738,2435.013270503237,-1.0996998221122258,0.4076382481898913,2.1323451286683084,2.433599060629431,0.0141220237488186,0.0043766665034778,0.0035378237074296,-0.2949928109058021,0.0250389579024136,0.3200317688082157,-1058.8441347886633,-7.721742595432943,CCCn1c(=O)c2[nH]c(C3CCC(=O)C3)nc2n(CCC)c1=O,train_full
540,171,1,data/moses_wfns/archive_0_0_1.tar,-1066.5592816436372,-102.39802980398078,1995.834244049909,-5414.783688207486,2454.8243180134514,-2.3681028613867983,0.4003364262682586,-1.3837819514134255,2.77182844082442,0.012778847333393,0.0048387415793235,0.0037553923756142,-0.2970151618157221,0.0216218775545459,0.318637039370268,-1058.8441347886633,-7.715146854973909,CCCn1c(=O)c2[nH]c(C3CCC(=O)C3)nc2n(CCC)c1=O,test_full_conformations
541,172,0,data/moses_wfns/archive_0_0_1.tar,-1100.8639849456265,-99.74825492381032,1674.6834027272707,-4835.403686173239,2159.6311063599096,4.1172064941886415,-4.305201677443503,0.6800512927369897,5.995716851220105,0.0249520727173137,0.0035912996233869,0.0033342058359461,-0.3176826617929442,0.0178182753948656,0.3355009371878097,-1094.552384043934,-6.311600901692145,O=C(NC1CCCCNC1=O)c1cccc(C(F)(F)F)c1,train_full
542,172,1,data/moses_wfns/archive_0_0_1.tar,-1100.8043354030624,-99.85407000979592,1706.633620664102,-4899.361705619009,2191.805530316922,4.512057645309749,-4.437584907128661,1.0587356408794888,6.416521266219162,0.0295646497890598,0.0036073006328473,0.0034819143603888,-0.3101565943527981,0.0291792599543905,0.3393358543071886,-1094.552384043934,-6.25195135912827,O=C(NC1CCCCNC1=O)c1cccc(C(F)(F)F)c1,test_full_conformations
543,172,2,data/moses_wfns/archive_0_0_1.tar,-1100.8038350467227,-99.77620766558286,1676.781059845785,-4839.493147245908,2161.710536042725,4.396034582556327,-2.756199499810694,2.5467536757564555,5.77994031273394,0.027732325077309,0.0034119570129359,0.0032871754429746,-0.3108500403493341,0.0228139402182877,0.3336639805676218,-1094.552384043934,-6.251451002788599,O=C(NC1CCCCNC1=O)c1cccc(C(F)(F)F)c1,train_full
544,173,0,data/moses_wfns/archive_0_0_1.tar,-964.6728499652726,-90.74283883000317,1597.003708295645,-4485.524808949465,2014.6194696503824,-0.8991015593197054,-6.383853290436763,-0.498786980250195,6.466123637811028,0.0271022426869944,0.0058317374487937,0.0051474091836279,-0.2837851359861948,0.0278969247879257,0.3116820607741205,-958.6566994425916,-6.016150522681073,C=C1C(CO)C(O)CC1n1cnc2c(=O)[nH]c(N)nc21,train_full
545,173,1,data/moses_wfns/archive_0_0_1.tar,-964.6648908977196,-90.7279717186634,1598.5201594366413,-4489.241255016082,2016.812068731436,-4.316416461412016,-5.796915713445404,-2.608252339262352,7.683662090592375,0.0217605229126373,0.0065287308381157,0.0055065608720876,-0.2761564328816877,0.0336358904901271,0.3097923233718148,-958.6566994425916,-6.008191455128099,C=C1C(CO)C(O)CC1n1cnc2c(=O)[nH]c(N)nc21,test_full_conformations
546,173,2,data/moses_wfns/archive_0_0_1.tar,-964.6794162052648,-90.721777611522,1588.436242321263,-4469.154557429643,2006.787948337524,-0.5033092037477519,-9.278686706029593,1.8482353763421355,9.474350698047337,0.0241423427718838,0.0056740417370259,0.0053664607445124,-0.2658618368665539,0.0522581399350154,0.3181199768015693,-958.6566994425916,-6.0227167626732125,C=C1C(CO)C(O)CC1n1cnc2c(=O)[nH]c(N)nc21,train_full
547,174,0,data/moses_wfns/archive_0_0_1.tar,-953.4374516065016,-91.3747520796466,1620.1975119785038,-4512.3457273560025,2030.1128367782144,6.675585789778482,-5.192355419519725,-4.863801554986418,9.756052788171893,0.0194127960939489,0.0051451390064692,0.0047368353298541,-0.2933959614029197,0.0068807153592773,0.300276676762197,-946.784345573706,-6.653106032795677,COc1cccc(Cn2nc3oc(=O)cc(C)c3c2C)c1,test_full_structures
548,174,1,data/moses_wfns/archive_0_0_1.tar,-953.4516494810956,-91.3706832000618,1626.4894728514998,-4524.982319954417,2036.4391796328416,2.7026134189522537,-1.0358820461012883,-7.563274902117358,8.098166344965637,0.0172079592589813,0.0058793276474836,0.0048675787562935,-0.297507833610058,0.0062586800031629,0.3037665136132209,-946.784345573706,-6.667303907389737,COc1cccc(Cn2nc3oc(=O)cc(C)c3c2C)c1,test_full_structures
549,174,2,data/moses_wfns/archive_0_0_1.tar,-953.4346417867532,-91.38849739100066,1603.1460609748788,-4478.168257513134,2013.002623036391,7.269320011255735,5.694250640780682,3.622076648570072,9.919019257678194,0.0210923023665763,0.0047454015638085,0.0042977183920896,-0.2944186867494332,0.0048336782692793,0.2992523650187125,-946.784345573706,-6.650296213047227,COc1cccc(Cn2nc3oc(=O)cc(C)c3c2C)c1,test_full_structures
550,174,3,data/moses_wfns/archive_0_0_1.tar,-953.432071879067,-91.40975648824808,1605.9475704369622,-4483.827986992623,2015.8845252541216,4.94631120794893,-1.619277076415189,-8.510580015471797,9.975872143117757,0.0183445592658526,0.0050932010306031,0.0043631479456789,-0.2922545242530389,0.0061239894267264,0.2983785136797652,-946.784345573706,-6.647726305361061,COc1cccc(Cn2nc3oc(=O)cc(C)c3c2C)c1,test_full_structures
551,175,0,data/moses_wfns/archive_0_0_1.tar,-873.335681836956,-84.72543177866494,1377.8513315223747,-3919.4305403640246,1752.9894613952329,2.731956296246924,6.3218144741854125,-0.4590290097451805,6.902146845903166,0.0466826780567048,0.0038735164519532,0.0035942766675212,-0.2686910620657238,0.0415139902311742,0.310205052296898,-867.0727331822449,-6.262948654711181,Cn1ccc2cc(NC(=O)Nc3cccnc3)ccc21,test_full_conformations
552,175,1,data/moses_wfns/archive_0_0_1.tar,-873.332642664485,-84.72405229274878,1372.7956297274382,-3909.231135638703,1747.8473915716288,2.077048284029214,-4.054165176725732,2.052241624011661,4.996206614791897,0.0517741578479658,0.0037077146308906,0.0034785733573532,-0.2667058781130941,0.0397903349536119,0.306496213066706,-867.0727331822449,-6.259909482240119,Cn1ccc2cc(NC(=O)Nc3cccnc3)ccc21,train_full
553,176,0,data/moses_wfns/archive_0_0_1.tar,-1390.7485091257963,-114.34566195246734,1905.5048509963208,-5683.249220827227,2501.368271456492,4.202780308635001,1.9473919129205468,-8.099843257644169,9.330764083587267,0.0314124302833353,0.002280954463701,0.0021568147877856,-0.2933854562880393,-0.0055669488888078,0.2878185073992315,-1383.5593592685168,-7.1891498572797445,Cc1c(C)c2ccc(OCc3nnc(C(C)C)s3)cc2oc1=O,train_full
554,176,1,data/moses_wfns/archive_0_0_1.tar,-1390.7507546255638,-114.35142276665862,1992.821999404606,-5858.289436674118,2589.0965557916725,7.450410845985773,2.7834070699305755,-5.397768313119648,9.612069467759817,0.0167219284083451,0.0033041400806608,0.0029563483806129,-0.2863554127686951,-0.0027973129364042,0.2835580998322909,-1383.5593592685168,-7.191395357046986,Cc1c(C)c2ccc(OCc3nnc(C(C)C)s3)cc2oc1=O,train_full
555,176,2,data/moses_wfns/archive_0_0_1.tar,-1390.7519554029288,-114.3654455607272,2071.84945017171,-6016.153226717408,2667.946510019758,-0.9648871504376144,4.131801200350323,-4.532459829860846,6.208540930170164,0.0118117263341785,0.0049795818132155,0.0040578582495735,-0.2941957356461119,-0.006836259775608,0.2873594758705039,-1383.5593592685168,-7.192596134412042,Cc1c(C)c2ccc(OCc3nnc(C(C)C)s3)cc2oc1=O,test_full_conformations
556,176,3,data/moses_wfns/archive_0_0_1.tar,-1390.7526713597365,-114.35154742922973,1995.5880307354907,-5864.019066358308,2592.058468411461,7.408968211140568,4.645453442772097,-3.705478604671333,9.497558598520548,0.0153821988983192,0.0034403789426455,0.0030731385889316,-0.28687424697909,0.0015910877682346,0.2884653347473245,-1383.5593592685168,-7.193312091219468,Cc1c(C)c2ccc(OCc3nnc(C(C)C)s3)cc2oc1=O,train_full
557,177,0,data/moses_wfns/archive_0_0_1.tar,-1770.4126928882386,-126.1252392602034,2087.777818597778,-6577.0232341977935,2844.983149134004,1.693987229117077,1.9209234462786544,5.736686274320983,6.282444510607123,0.0103246044444945,0.0064976160316786,0.0047015276997633,-0.3090560304679714,-0.0336756318156501,0.2753803986523213,-1764.4343574316142,-5.978335456624336,NC(=O)c1[nH]c2ccc(Cl)cc2c1S(=O)(=O)c1ccccc1,test_full_scaffolds
558,177,1,data/moses_wfns/archive_0_0_1.tar,-1770.4204801738151,-126.05373816425193,2077.558849685024,-6557.520807895151,2835.6190658596443,-3.9169685856701193,-1.5419927018154718,-8.80330174957977,9.757997032574512,0.0100081154795398,0.0064361287879747,0.0047076566033844,-0.3163773728801491,-0.0354631322493081,0.280914240630841,-1764.4343574316142,-5.9861227422011325,NC(=O)c1[nH]c2ccc(Cl)cc2c1S(=O)(=O)c1ccccc1,test_full_scaffolds