,MOSES id,CONFORMER id,archive name,DFT TOTAL ENERGY,DFT XC ENERGY,DFT NUCLEAR REPULSION ENERGY,DFT ONE-ELECTRON ENERGY,DFT TWO-ELECTRON ENERGY,DFT DIPOLE X,DFT DIPOLE Y,DFT DIPOLE Z,DFT TOTAL DIPOLE,DFT ROT CONSTANT A,DFT ROT CONSTANT B,DFT ROT CONSTANT C,DFT HOMO,DFT LUMO,DFT HOMO-LUMO GAP,DFT ATOMIC ENERGY,DFT FORMATION ENERGY,SMILES,SPLITS
977,298,7,data/moses_wfns/archive_0_0_2.tar,-1116.4745530767836,-107.71853020426074,2107.253951618472,-5701.036831579218,2585.0572151166944,-0.329890146693613,-4.378254489325495,-1.1742686244287064,4.544980383291227,0.0072525139978229,0.0051314019283758,0.0034769088453495,-0.2868057048992542,-0.0100490904518478,0.2767566144474064,-1108.748642656162,-7.725910420621631,CN(c1ccccc1)c1nc(N2CCOCC2)nc(-n2ccnc2)n1,train_full
978,299,0,data/moses_wfns/archive_0_0_2.tar,-1241.8385958531703,-97.20293198528708,1460.5547488049283,-4595.558239707241,1990.3934270712589,-4.913619167224231,-0.8439412113116559,5.810656530651044,7.656345042241836,0.0353364923998558,0.0035792003859119,0.0032774864752796,-0.2945905268258221,0.0227373254802925,0.3173278523061146,-1235.7458551807288,-6.092740672441551,O=C1N=C(N2CCCCC2)CN1c1ccc(Cl)cc1,train_full
979,299,1,data/moses_wfns/archive_0_0_2.tar,-1241.8071750838656,-97.20519692982626,1462.3878756486183,-4599.638708237665,1992.67435868194,-2.9003789057714338,5.305536921996811,2.558161953724518,6.565448378382009,0.0395430249098729,0.0034824007428703,0.0033990429001763,-0.2983415145925157,0.0111952842473458,0.3095367988398614,-1235.7458551807288,-6.061319903136791,O=C1N=C(N2CCCCC2)CN1c1ccc(Cl)cc1,train_full
980,299,2,data/moses_wfns/archive_0_0_2.tar,-1241.8380259747692,-97.19732828064164,1463.3413317801903,-4601.313756022387,1993.357448779872,-5.237382972536238,-2.439943457165344,5.772738740470354,8.167497599687664,0.0352910071613216,0.0036060622652108,0.0033349200047919,-0.2986450494812894,0.027589479631378,0.3262345291126673,-1235.7458551807288,-6.092170794040385,O=C1N=C(N2CCCCC2)CN1c1ccc(Cl)cc1,test_full_conformations
981,300,0,data/moses_wfns/archive_0_0_2.tar,-987.7312755057076,-94.8644923188655,1692.0285104329482,-4702.58914683828,2117.720258712679,0.1561555084313534,0.8079747787740923,-5.581837661777694,5.64217329301293,0.0220799602456882,0.0042742284802156,0.0036430681003339,-0.2977439728074501,-0.0037447480920675,0.2939992247153826,-980.8524971399586,-6.878778365749099,O=C(c1ccccn1)N1CCN(C(=O)c2ccccn2)CC1,"train_full,test_large_conformations"
982,300,1,data/moses_wfns/archive_0_0_2.tar,-987.4208851652884,-94.89471045013416,1685.3297927940089,-4687.977761372712,2110.1485891096195,3.361006446710426,0.6339537956444847,-6.279380758972236,7.150446452214843,0.0241098898050425,0.0039285135364987,0.0034682287030196,-0.2367077930746493,-0.0045483761713502,0.232159416903299,-980.8524971399586,-6.568388025329796,O=C(c1ccccn1)N1CCN(C(=O)c2ccccn2)CC1,"train_large,train_full"
983,300,2,data/moses_wfns/archive_0_0_2.tar,-987.7290486127048,-94.90731663706758,1697.1007868971574,-4712.868731590957,2122.9729523728206,0.5849268666825459,0.2228972459869285,-0.0453336986083242,0.6275968179214491,0.0314791253476875,0.0039066198959597,0.0035649881450377,-0.2970059255214854,-0.0008879248960665,0.2961180006254189,-980.8524971399586,-6.876551472746314,O=C(c1ccccn1)N1CCN(C(=O)c2ccccn2)CC1,"train_large,train_full"
984,300,3,data/moses_wfns/archive_0_0_2.tar,-987.7248701792664,-94.86277299924308,1686.217592081997,-4690.91283031413,2111.8596939000663,-0.1415467536188435,-0.357644099746821,-0.2100121028544801,0.4382349471335077,0.0327243897874046,0.0037844054535373,0.0034481602022377,-0.2990449499553096,-0.0032525881566962,0.2957923617986134,-980.8524971399586,-6.872373039307831,O=C(c1ccccn1)N1CCN(C(=O)c2ccccn2)CC1,"train_large,train_full"
985,300,4,data/moses_wfns/archive_0_0_2.tar,-987.7260346042472,-94.87118821979855,1716.945216447738,-4752.597623884358,2142.8241749811864,-0.8684288441959782,3.3038605963899923,-4.886001308789276,5.9617675472380265,0.0153208814205638,0.0054129743775746,0.0043928093286811,-0.3048210803312644,0.0002992530406493,0.3051203333719137,-980.8524971399586,-6.873537464288575,O=C(c1ccccn1)N1CCN(C(=O)c2ccccn2)CC1,"train_large,test_full_conformations"
986,300,5,data/moses_wfns/archive_0_0_2.tar,-987.7229792829518,-94.85576663280322,1690.0511774115805,-4698.70539177975,2115.813162432617,0.000259382229274,0.1825466533446579,0.1396737782193789,0.2298523705523869,0.0258624800897732,0.0039677881219458,0.0037144639700712,-0.3047941235732331,-0.0021281379875333,0.3026659855856998,-980.8524971399586,-6.870482142993183,O=C(c1ccccn1)N1CCN(C(=O)c2ccccn2)CC1,"train_large,train_full"
987,300,6,data/moses_wfns/archive_0_0_2.tar,-987.4578998419826,-94.9168388059187,1718.4184598744357,-4754.047746022674,2143.116142508904,3.790262325401752,1.0178078053312816,-6.051637056689282,7.212789494352936,0.0182013655760972,0.0048298466299422,0.004156810345563,-0.2523078065874184,-0.0123262576019369,0.2399815489854815,-980.8524971399586,-6.60540270202398,O=C(c1ccccn1)N1CCN(C(=O)c2ccccn2)CC1,"train_large,train_full"
988,301,0,data/moses_wfns/archive_0_0_3.tar,-970.4765885013904,-93.62283075726432,1588.419437073712,-4470.67227897571,2005.421771617129,-3.159605488274298,2.9999312174742867,2.6194607525418228,5.0837258762856985,0.0312627260964588,0.0031906755693248,0.0028999415129889,-0.3033249442525421,-0.0314373504445846,0.2718875938079574,-963.6256883916844,-6.850900109706004,COc1ccccc1CNC(=O)c1ccc2cnccc2n1,train_full
989,301,1,data/moses_wfns/archive_0_0_3.tar,-970.282491762715,-93.50016893486637,1606.502976336117,-4507.110300982242,2023.8476148056848,-2.5273830335606644,-1.3308006495422928,2.3264394072416628,3.683885948657944,0.0310829121137895,0.0034039260789124,0.0031038864708417,-0.2830173974296816,-0.0250298903632069,0.2579875070664747,-963.6256883916844,-6.656803371030719,COc1ccccc1CNC(=O)c1ccc2cnccc2n1,test_full_conformations
990,301,2,data/moses_wfns/archive_0_0_3.tar,-970.4182273360822,-93.56180201520834,1602.8509753679027,-4499.725761288262,2020.041581923112,-2.662380003024169,-2.486932893494674,-4.737325650942407,5.976232661160847,0.0246086722143695,0.0034904103714858,0.0032210210744289,-0.296325723166712,-0.023335604133557,0.272990119033155,-963.6256883916844,-6.792538944397848,COc1ccccc1CNC(=O)c1ccc2cnccc2n1,train_full
991,302,0,data/moses_wfns/archive_0_0_3.tar,-986.4385368538642,-89.9843892115545,1524.5193632450732,-4376.74780964784,1955.796902272336,-4.733415796760495,-0.2554823787342472,-0.7607475329606329,4.8009616911376405,0.0316389470703295,0.0067884945596159,0.0063584062316536,-0.302141365291502,0.0179756580741796,0.3201170233656816,-981.1674904865644,-5.271046367299846,Nc1ncnc2c1ncn2C1OC(CO)C(O)C1F,train_full
992,302,1,data/moses_wfns/archive_0_0_3.tar,-986.426059573662,-89.97144996178515,1519.212951780674,-4367.098728935616,1951.4526726201104,-4.82026611537557,0.2339411507106177,-3.7241759068708418,6.095833008732354,0.027790293320728,0.0071089788911953,0.0062332308780759,-0.2936783717096066,0.0254196458570241,0.3190980175666307,-981.1674904865644,-5.258569087097726,Nc1ncnc2c1ncn2C1OC(CO)C(O)C1F,train_full
993,302,2,data/moses_wfns/archive_0_0_3.tar,-986.4737243528152,-89.98272901164944,1521.5128439432376,-4370.126183416093,1952.144991593011,0.7532327499596239,-1.052831258351134,0.415234448166008,1.3594972898526494,0.0309325882554934,0.0070723693610626,0.0063217474941562,-0.3020929875515803,0.0242026847607199,0.3262956723123002,-981.1674904865644,-5.306233866250977,Nc1ncnc2c1ncn2C1OC(CO)C(O)C1F,test_full_conformations
994,303,0,data/moses_wfns/archive_0_0_3.tar,-975.5248144845452,-94.29471890425098,1788.8174997263675,-4878.986614431642,2208.969878079302,1.8616507258589456,2.178592574355237,-2.030778789700571,3.512274408816121,0.0133646362915054,0.0075285314595556,0.0052817514613035,-0.2891580468756263,0.0393964123716727,0.328554459247299,-968.3606226846366,-7.164191799908622,O=C(C1c2ccccc2Oc2ccccc21)N1CCOCC1,test_full_conformations
995,303,1,data/moses_wfns/archive_0_0_3.tar,-975.5322866177688,-94.2741144707959,1789.572192596121,-4880.734563663039,2209.9347750519128,1.920776630448368,-1.1384703696863978,2.6742476198840333,3.483833804759619,0.0132864065068464,0.0075832408380016,0.0052863516929064,-0.2916270986231803,0.0438869209247212,0.3355140195479015,-968.3606226846366,-7.171663933132095,O=C(C1c2ccccc2Oc2ccccc21)N1CCOCC1,train_full
996,304,0,data/moses_wfns/archive_0_0_3.tar,-1212.5824026928271,-96.237044806453,1548.047518367756,-4732.351922609757,2067.9835253801243,1.8536010953278388,-1.955536192019191,2.603908969897556,3.74703892992993,0.0421915588869197,0.0052451906627738,0.0050028631191056,-0.2982315388279381,0.0289028443474867,0.3271343831754248,-1207.0607370114758,-5.521665681351351,CN(C)S(=O)(=O)N1CCN(c2ncccn2)CC1,train_full
997,304,1,data/moses_wfns/archive_0_0_3.tar,-1212.5649857624314,-96.24933421803463,1566.8999021191769,-4769.6328643818415,2086.4437726686565,2.925479497873776,-4.040192628234419,3.2649079935997967,5.96164498879222,0.0357061862888766,0.0057257132248401,0.0053622219449035,-0.2977047298066056,0.0242367892292802,0.3219415190358858,-1207.0607370114758,-5.50424875095564,CN(C)S(=O)(=O)N1CCN(c2ncccn2)CC1,test_full_conformations
998,304,2,data/moses_wfns/archive_0_0_3.tar,-1212.5827602007134,-96.24669896657204,1555.979364799123,-4748.010966624378,2075.72056268946,3.530018254270983,-1.904692856882136,4.094622218125098,5.7319119727808,0.0342789632253039,0.0055846442101634,0.0054424603561743,-0.2977428441421368,0.0223856807806136,0.3201285249227504,-1207.0607370114758,-5.522023189237643,CN(C)S(=O)(=O)N1CCN(c2ncccn2)CC1,train_full
999,304,3,data/moses_wfns/archive_0_0_3.tar,-1212.5587316778242,-96.27545961403308,1574.4020908635423,-4785.02755994877,2094.36786876766,1.1254155127003116,-3.513612101930272,0.4498199416813341,3.7167684968251073,0.0389498434755296,0.0058137588796812,0.0054370308070428,-0.2896194071612199,0.0281765986512756,0.3177960058124955,-1207.0607370114758,-5.497994666348404,CN(C)S(=O)(=O)N1CCN(c2ncccn2)CC1,train_full