,MOSES id,CONFORMER id,archive name,DFT TOTAL ENERGY,DFT XC ENERGY,DFT NUCLEAR REPULSION ENERGY,DFT ONE-ELECTRON ENERGY,DFT TWO-ELECTRON ENERGY,DFT DIPOLE X,DFT DIPOLE Y,DFT DIPOLE Z,DFT TOTAL DIPOLE,DFT ROT CONSTANT A,DFT ROT CONSTANT B,DFT ROT CONSTANT C,DFT HOMO,DFT LUMO,DFT HOMO-LUMO GAP,DFT ATOMIC ENERGY,DFT FORMATION ENERGY,SMILES,SPLITS
606,191,3,data/moses_wfns/archive_0_0_1.tar,-1392.021465235238,-109.29356534788198,1800.3362100796676,-5481.2939149490185,2398.256728897968,-4.6503830281769,-2.142388433600426,1.974857402846352,5.487800312580413,0.016565212138814,0.0043008594803992,0.0040975642144801,-0.2856314286941656,-0.0049595666141414,0.2806718620800242,-1385.699211377746,-6.322253857491887,CCOc1cc(CNc2cn[nH]c(=O)c2Cl)ccc1OC,train_full
607,191,4,data/moses_wfns/archive_0_0_1.tar,-1392.035572522061,-109.28953704754794,1843.769097848389,-5568.10316104843,2441.6159100570853,-2.9101996796587137,3.699555253893538,-3.019288797075473,5.592144140867831,0.016545080212521,0.0051442901689526,0.0049397361623692,-0.286936148217301,-0.006568021325121,0.28036812689218,-1385.699211377746,-6.336361144315333,CCOc1cc(CNc2cn[nH]c(=O)c2Cl)ccc1OC,test_full_conformations
608,192,0,data/moses_wfns/archive_0_0_1.tar,-1261.423654562714,-99.2504583395337,1587.0859006124358,-4874.323963947588,2125.0892121096595,-0.0993118419634517,2.381253702844013,1.1465534463131968,2.6447716053593675,0.0115729012040318,0.0094983188987289,0.0055868990739538,-0.3026403621566318,-0.0068744298233415,0.2957659323332903,-1255.3121592581952,-6.111495304518712,CN1C(=O)CN=C(c2ccccc2)c2cc(Cl)ccc21,train_full
609,192,1,data/moses_wfns/archive_0_0_1.tar,-1261.4243570054318,-99.27523488575083,1591.0442645097291,-4882.342184959616,2129.173097999797,0.1228199700583599,2.020830398954535,-0.4724016345912182,2.078942892613536,0.0112667453438231,0.0096443612761778,0.0056689827918182,-0.3001149154176167,-0.0078588948121992,0.2922560206054175,-1255.3121592581952,-6.112197747236678,CN1C(=O)CN=C(c2ccccc2)c2cc(Cl)ccc21,test_full_conformations
610,193,0,data/moses_wfns/archive_0_0_1.tar,-1076.8697338449686,-99.02401056379128,1812.3760407379857,-5073.493146509031,2283.2973500939293,-1.354269524642562,2.993835922388408,0.5179389950130565,3.3264636294590653,0.0247750095334522,0.0057732569388833,0.0049604504286909,-0.278938049493221,0.0433009708671002,0.3222390203603212,-1070.811956297136,-6.057777547832529,COc1nc(N)nc2c1ncn2C1OC(CO)C(O)C1O,train_full
611,193,1,data/moses_wfns/archive_0_0_1.tar,-1076.8685606116476,-99.06039977750328,1791.7810228212868,-5032.0911355714325,2262.5274193302694,-3.100214971394526,3.6950878364574335,2.591408294224141,5.475436415060275,0.0222289056410975,0.0057673701294728,0.0047160688539756,-0.2750353288134251,0.0476286104829861,0.3226639392964112,-1070.811956297136,-6.05660431451156,COc1nc(N)nc2c1ncn2C1OC(CO)C(O)C1O,test_full_conformations
612,194,0,data/moses_wfns/archive_0_0_1.tar,-1013.2632556292394,-89.84667763663057,1501.4703347931145,-4374.939942032882,1950.0737940119848,-1.142586220079462,-6.00919323268447,-5.001732142255123,7.901470179714932,0.0314819824878003,0.008860760487344,0.0074898412608226,-0.3053993183416429,-0.0009538295477514,0.3044454887938915,-1008.4132158234892,-4.850039805750157,Nc1ccn(C2OC(CO)C(O)C2(F)F)c(=O)n1,train_full
613,194,1,data/moses_wfns/archive_0_0_1.tar,-1013.2600162744624,-89.85054780446156,1502.5407533207888,-4375.649105410836,1949.7203932107827,2.3858693692845563,-3.4763193362568807,6.470503531477419,7.722990659439225,0.0299839859834945,0.0093247633302663,0.007866221693084,-0.2926228888350761,-0.0052137630459506,0.2874091257891255,-1008.4132158234892,-4.846800450972978,Nc1ccn(C2OC(CO)C(O)C2(F)F)c(=O)n1,test_full_conformations
614,195,0,data/moses_wfns/archive_0_0_1.tar,-1160.789319280114,-93.4335088146718,1440.7449532835817,-4444.824640134783,1936.7424078079048,1.9974789266614867,0.1598194925234572,2.51371382599797,3.2146884035098227,0.0216406914847254,0.0071430784359935,0.0054095408196872,-0.2983024324083507,-0.0111591791615807,0.28714325324677,-1154.994844836357,-5.794474443756826,CC(=O)Nc1ccccc1-c1nc2ccccc2s1,train_full
615,196,0,data/moses_wfns/archive_0_0_1.tar,-1452.9709364941566,-118.30379124386305,2120.370799591031,-6201.308116334449,2746.303091847267,-2.412457113187068,-6.717069186150898,3.1578760628200286,7.804559500871044,0.0132183492035431,0.0036741726149173,0.0030156628540038,-0.3165188326520228,-0.0064513604092822,0.3100674722427406,-1445.8782226884264,-7.092713805730227,Cc1nc(C2CCCCC2)c(-c2ccc(S(N)(=O)=O)c(F)c2)o1,test_full_conformations
616,196,1,data/moses_wfns/archive_0_0_1.tar,-1452.9850099921312,-118.27252322133891,2109.917150413153,-6180.3225087699575,2735.7252313686754,-3.970619335926968,-4.578561172349431,2.098241518530847,6.413396743525972,0.013099997624264,0.0035011727551202,0.0029017831098896,-0.3061362620025749,-0.0123950804319423,0.2937411815706325,-1445.8782226884264,-7.1067873037047775,Cc1nc(C2CCCCC2)c(-c2ccc(S(N)(=O)=O)c(F)c2)o1,train_full
617,196,2,data/moses_wfns/archive_0_0_1.tar,-1452.975148930807,-118.2511077444734,2120.382338548245,-6201.436419194027,2746.362645116149,-3.68140162727132,-3.88246845468929,-6.150871787483148,8.152269805949107,0.0129922552773102,0.0036809187165915,0.0030264955687763,-0.3081543602903054,-0.010051275802627,0.2981030844876784,-1445.8782226884264,-7.09692624238096,Cc1nc(C2CCCCC2)c(-c2ccc(S(N)(=O)=O)c(F)c2)o1,train_full
618,197,0,data/moses_wfns/archive_0_0_1.tar,-1276.379529360958,-104.20656398850514,1759.9272816271923,-5239.13212184229,2307.057779274673,-1.854603506534629,-4.464644068530433,-0.6403685847415178,4.876748173674582,0.0281549627634413,0.0044482983498288,0.0038875753803292,-0.2804981367365333,0.0246762509121964,0.3051743876487297,-1269.779595310803,-6.599934050155071,Cn1c2ccccc2c2cc(C(=O)N3CCOCC3)sc21,test_full_conformations
619,197,1,data/moses_wfns/archive_0_0_1.tar,-1276.3652557247467,-104.20495867121016,1743.6795982585843,-5206.543137147533,2290.729592170165,-2.3949721121028604,2.053420341231393,1.3062191344461294,3.4144743289013726,0.0208322630265535,0.0045997886528966,0.0037997828224422,-0.2834254991921046,0.0184283671637119,0.3018538663558164,-1269.779595310803,-6.585660413943742,Cn1c2ccccc2c2cc(C(=O)N3CCOCC3)sc21,train_full
620,198,0,data/moses_wfns/archive_0_0_1.tar,-1350.204391296117,-109.73353623929832,1860.2354604218224,-5538.954262603802,2438.273525272224,-2.0758018087153225,-0.4199011098795602,2.8182337773642883,3.5252959755204776,0.0129079874426658,0.0052044312913282,0.0040692585426344,-0.3321465390682363,-1.3649667787378643e-05,0.3321328894004489,-1343.7512868925796,-6.453104403537054,Cc1onc(-c2ccccc2)c1-c1ccc(S(N)(=O)=O)cc1,test_full_conformations
621,198,1,data/moses_wfns/archive_0_0_1.tar,-1350.2072555883576,-109.73725938092204,1864.785135738903,-5547.8741069454645,2442.6446450720946,-3.3222998903048264,2.1907286150812704,0.1639643363823792,3.982945233073219,0.0131292742964673,0.0052256378392565,0.0041112946930095,-0.3386157321395783,-0.0006179369897505,0.3379977951498278,-1343.7512868925796,-6.455968695777983,Cc1onc(-c2ccccc2)c1-c1ccc(S(N)(=O)=O)cc1,train_full
622,199,0,data/moses_wfns/archive_0_0_1.tar,-837.8210126942505,-80.78695905232242,1318.134492921852,-3754.729585497975,1679.580108253624,-3.754885273171935,2.613799660330334,-0.1474824900256668,4.577429755210955,0.0370320792814632,0.0062539277341991,0.0053630960788256,-0.2442603589503752,-0.0035120984460974,0.2407482605042778,-831.9995950992603,-5.82141759499018,Nc1ccc(-c2cc(=O)c3c(N)cccc3o2)cc1,train_full
623,200,0,data/moses_wfns/archive_0_0_1.tar,-1411.7605535629648,-115.73916458780984,2154.05789290692,-6210.549577844417,2760.501611995501,2.662090062261992,0.1272578457020701,5.013840598171058,5.678161287138214,0.0145213492403809,0.0046991641896988,0.0041508798562325,-0.2883653801518771,0.0208984450437774,0.3092638251956545,-1404.5161157930108,-7.244437769953947,COc1ccc(S(=O)(=O)N2CCCc3ccccc32)cc1OC,train_full
624,200,1,data/moses_wfns/archive_0_0_1.tar,-1411.743521563454,-115.76585849520488,2135.016602684496,-6172.394847498754,2741.4313065196648,0.5133148322824437,-4.850178447720833,-3.5747763526383047,6.047044655297234,0.0149020556470077,0.0043304611602109,0.0039573467468997,-0.2930202561100209,0.0245719679064672,0.3175922240164881,-1404.5161157930108,-7.2274057704432835,COc1ccc(S(=O)(=O)N2CCCc3ccccc32)cc1OC,train_full
625,200,2,data/moses_wfns/archive_0_0_1.tar,-1411.740762131148,-115.76033664738806,2136.4717051237635,-6175.328293958827,2742.9069099597714,0.7052965448055889,-5.3415161351404645,-2.279226623497268,5.8501377624240085,0.0150494606291226,0.0043520170189473,0.0039296870491595,-0.2925645806024597,0.0201219505008371,0.3126865311032968,-1404.5161157930108,-7.224646338137063,COc1ccc(S(=O)(=O)N2CCCc3ccccc32)cc1OC,train_full
626,200,3,data/moses_wfns/archive_0_0_1.tar,-1411.7596019168009,-115.77764572754928,2161.7984104866864,-6226.011162440626,2768.26221133958,-0.0943892543578237,-3.784274166828127,-4.66464479778582,6.007374750302436,0.0136476542790867,0.0046565730423179,0.0045297886441707,-0.2947130062241716,0.0247577333496633,0.3194707395738349,-1404.5161157930108,-7.243486123790035,COc1ccc(S(=O)(=O)N2CCCc3ccccc32)cc1OC,test_full_conformations
627,201,0,data/moses_wfns/archive_0_0_2.tar,-1277.6756603683216,-99.07959285798616,1466.8823965010945,-4659.09576745359,2013.6405375945087,-3.164758606854447,-5.4409990320188175,1.7250353416961397,6.52655456088354,0.0359128817274627,0.0036757661317167,0.0034783379058577,-0.3040054755457948,0.0065029177969127,0.3105083933427075,-1271.919447420033,-5.756212948288521,O=C1N=C(N2CCOCC2)CN1c1ccc(Cl)cc1,train_full
628,201,1,data/moses_wfns/archive_0_0_2.tar,-1277.6794731034583,-99.07956182657838,1466.2534934774844,-4658.061913407788,2013.231541480509,-2.9004560406360502,-6.073101533445555,-1.0833860554760073,6.816812512047018,0.0370199140049157,0.003645734855896,0.0034624080727307,-0.3170970261266638,0.0306320424856211,0.3477290686122849,-1271.919447420033,-5.760025683425283,O=C1N=C(N2CCOCC2)CN1c1ccc(Cl)cc1,train_full
629,201,2,data/moses_wfns/archive_0_0_2.tar,-1277.6545521019505,-99.126504274031,1472.7934397993,-4670.803867168039,2019.5055226288696,-2.7070471248139105,2.574579654748024,4.3379644371912285,5.724901745265286,0.0305831925375839,0.0038640533367014,0.0036108651071073,-0.3017619509138168,0.0046540919267629,0.3064160428405797,-1271.919447420033,-5.735104681917392,O=C1N=C(N2CCOCC2)CN1c1ccc(Cl)cc1,test_full_conformations
630,202,0,data/moses_wfns/archive_0_0_2.tar,-853.4855211282701,-83.76224332153903,1470.1632242080143,-4075.552106583292,1835.6912449808915,2.37853040718179,0.0606353413210205,1.1440722624845894,2.6400728937459466,0.026494496256638,0.0061702040967061,0.005098988031515,-0.2817937218104995,0.0311168517701133,0.3129105735806128,-847.1209631744829,-6.364557953787198,c1ccc2c(c1)CCCC2Nc1ncnc2[nH]cnc12,test_full_conformations
631,202,1,data/moses_wfns/archive_0_0_2.tar,-853.4817341311064,-83.7211952907988,1481.472850162261,-4098.369653345031,1847.162409898958,2.3413864802897257,-1.3357959437562528,-1.2923353146893573,2.9894099784125308,0.0240731876677104,0.0065026996370658,0.0057994925522764,-0.286260843078688,0.0292667975923174,0.3155276406710053,-847.1209631744829,-6.360770956623469,c1ccc2c(c1)CCCC2Nc1ncnc2[nH]cnc12,train_full
632,203,0,data/moses_wfns/archive_0_0_2.tar,-826.686057411676,-81.5582404842153,1401.597260117789,-3904.291979515835,1757.5974951324674,-0.5131658734713807,2.8774464650003515,-0.1259556159671152,2.925560149754628,0.026709824421835,0.0050914853633951,0.0043684557599606,-0.2876659955441987,0.0597774626165224,0.3474434581607211,-819.797718934647,-6.888338477028924,CCC(=O)NCCC1CCc2ccc3c(c21)CCO3,train_full
633,203,1,data/moses_wfns/archive_0_0_2.tar,-826.6855035984515,-81.56035425485624,1425.793739327262,-3953.259964895733,1782.3714478512304,2.756989959355439,-1.2763184262694112,2.901278891360613,4.200881046480155,0.0203808286317865,0.0062454103675323,0.0052816163528662,-0.2891694062046618,0.0682749672785102,0.357444373483172,-819.797718934647,-6.887784663804496,CCC(=O)NCCC1CCc2ccc3c(c21)CCO3,test_full_conformations
634,203,2,data/moses_wfns/archive_0_0_2.tar,-826.6902171769341,-81.57908762529505,1462.670927940426,-4026.912610397741,1819.1636157391968,2.4804284082386854,-2.1914808708721454,-3.117720713628053,4.547009560577309,0.0224380966499641,0.0068428608551881,0.0062716618330899,-0.2761927019229186,0.0654105409015794,0.341603242824498,-819.797718934647,-6.892498242287047,CCC(=O)NCCC1CCc2ccc3c(c21)CCO3,train_full
635,203,3,data/moses_wfns/archive_0_0_2.tar,-826.691616621262,-81.55662859682013,1476.4152051025962,-4053.910511196658,1832.393746458275,2.065363201631377,-3.645475654364735,-0.3376666728481386,4.20347911653803,0.0185429238583254,0.0085952130057993,0.0064312509535914,-0.2904990249478991,0.0609585547107482,0.3514575796586472,-819.797718934647,-6.893897686614992,CCC(=O)NCCC1CCc2ccc3c(c21)CCO3,train_full
636,204,0,data/moses_wfns/archive_0_0_2.tar,-3254.2499704434044,-131.20071607052353,1262.6735145263017,-7017.030102954169,2631.3191920076465,0.613251179367825,5.2394316797133,-0.2110489290291793,5.279418811367755,0.0275653968978137,0.0078033680996183,0.006088664351295,-0.3179403814447622,0.010147151901726,0.3280875333464882,-3250.527396295845,-3.722574147559498,O=c1onc2n1-c1cc(Br)ccc1OC2,train_full
637,205,0,data/moses_wfns/archive_0_0_2.tar,-991.5305204994718,-95.09145947292382,1802.52268698752,-4929.788420298865,2230.8559564452853,1.5593777195176033,1.848995049975931,-2.1257972379780385,3.220163887748335,0.0132605786696029,0.008502211839834,0.0056673917571842,-0.2927113094575881,0.037182823909325,0.3298941333669131,-984.5824449161786,-6.948075583293189,CC(=O)OC1Cc2ccccc2N(C(N)=O)c2ccccc21,test_full_conformations
638,205,1,data/moses_wfns/archive_0_0_2.tar,-991.5407839963798,-95.06948642469452,1800.1726039734192,-4925.056391072126,2228.4417701870248,-0.1785265109844314,-2.954347469831636,3.434885895792106,4.534146204605273,0.0131859501548414,0.0084467191948565,0.0056213150128595,-0.2927815182329075,0.0435996171174091,0.3363811353503166,-984.5824449161786,-6.958339080201199,CC(=O)OC1Cc2ccccc2N(C(N)=O)c2ccccc21,train_full
639,206,0,data/moses_wfns/archive_0_0_2.tar,-1125.9263569657376,-107.38940015240668,2081.423446665694,-5668.485148106115,2568.55495329784,-2.324314502231664,4.3442113208952495,0.7941750521339165,4.99052341135785,0.0115064364373384,0.0050351012996534,0.0037350783300226,-0.2579208671515617,0.0405633546721921,0.2984842218237538,-1118.382093314517,-7.54426365122049,COc1cc(N)nc2[nH]c(-c3ccc(F)cc3)c(-c3ccncc3)c12,train_full
640,206,1,data/moses_wfns/archive_0_0_2.tar,-1125.9210567071957,-107.41138886220496,2085.0912920835863,-5675.5438718658825,2571.97344857424,-1.9709759352274057,4.094470499340802,0.4943347125461396,4.570973814762642,0.0117294344017079,0.0050212600818856,0.0037188184081369,-0.2633612306476341,0.03172047857969,0.2950817092273241,-1118.382093314517,-7.538963392678625,COc1cc(N)nc2[nH]c(-c3ccc(F)cc3)c(-c3ccncc3)c12,test_full_conformations
641,207,0,data/moses_wfns/archive_0_0_2.tar,-1354.074379571049,-109.8743763811606,1841.515845300644,-5507.411168220136,2421.721135443884,0.532119617855237,0.7719900412337292,-3.849708501985273,3.962243740827683,0.0155399189830466,0.0045020298032515,0.0037834988596804,-0.3313649418991569,-0.0086014775545487,0.3227634643446082,-1347.4812346687995,-6.593144902249378,CS(=O)(=O)c1ccc(C2=C(c3ccccc3)C(=O)OC2)cc1,train_full
642,207,1,data/moses_wfns/archive_0_0_2.tar,-1354.076271100581,-109.8717363876222,1843.9072596188992,-5512.173662202288,2424.087606036277,-0.1813961769106789,3.2088371207938065,2.0444588424664696,3.8091143589188063,0.014883734436969,0.0046088922831059,0.0038276240073122,-0.3366165247932465,-0.0147704454694853,0.3218460793237612,-1347.4812346687995,-6.595036431781409,CS(=O)(=O)c1ccc(C2=C(c3ccccc3)C(=O)OC2)cc1,test_full_conformations
643,208,0,data/moses_wfns/archive_0_0_2.tar,-3676.530223207909,-154.62321581485327,1589.927173772846,-8247.847456826916,3136.0289579515497,3.4043376820617643,-6.866242002010626,3.5014453099772584,8.425847942043713,0.025205405432908,0.0031810645573102,0.0028838511396918,-0.3150075717403933,-0.0668145271084973,0.2481930446318959,-3671.700108345551,-4.830114862358187,CSc1cc(-c2ccc(Br)cc2)oc(=O)c1C#N,test_full_conformations
644,208,1,data/moses_wfns/archive_0_0_2.tar,-3676.470435926724,-154.58327171091267,1588.7231572914363,-8245.632041842202,3135.0372503340404,2.2618478257104506,-8.189629480634514,3.497316947616913,9.187884002796157,0.0250535166546685,0.0032116262377283,0.0028734049215682,-0.308504867780405,-0.0805056138111615,0.2279992539692434,-3671.700108345551,-4.77032758117366,CSc1cc(-c2ccc(Br)cc2)oc(=O)c1C#N,train_full
645,209,0,data/moses_wfns/archive_0_0_2.tar,-1309.625241382843,-106.12015882862543,1723.040719298099,-5211.926423950655,2285.405834725775,-2.703973385686742,2.533718928927822,-2.7881943775418123,4.637373347948723,0.0239540299340958,0.0034976588486322,0.0031957721659227,-0.2970623119792671,0.0081101223729584,0.3051724343522254,-1303.2282262906192,-6.397015092223683,COc1ccnc(N2CCN(C(=O)c3cccs3)CC2)n1,train_full
646,209,1,data/moses_wfns/archive_0_0_2.tar,-1309.6516179782582,-106.15516382065412,1754.2350857268705,-5274.4192772270535,2316.71252031266,0.7580109795468087,1.0759432054600155,1.6592236660093354,2.117842676011262,0.0219435722385483,0.0039956456649839,0.0036683985916783,-0.2911922726508232,0.0086663421892178,0.299858614840041,-1303.2282262906192,-6.4233916876389685,COc1ccnc(N2CCN(C(=O)c3cccs3)CC2)n1,train_full
647,209,2,data/moses_wfns/archive_0_0_2.tar,-1309.6290801400703,-106.1264279178138,1715.0602221334975,-5196.166109187544,2277.628175515112,-0.1515502831012232,-2.663314021245033,1.4227917397303829,3.0233334911506966,0.0270791188215802,0.0033543290082925,0.0031102392616866,-0.2932879739392142,0.0063038592835424,0.2995918332227565,-1303.2282262906192,-6.400853849451323,COc1ccnc(N2CCN(C(=O)c3cccs3)CC2)n1,train_full
648,209,3,data/moses_wfns/archive_0_0_2.tar,-1309.6423347403754,-106.13274092562185,1740.5278753674895,-5246.905260357977,2302.8924459078253,-1.107431775463759,-0.4063952586510992,-1.95202498498752,2.280781398024904,0.0260095235534374,0.0036938405331319,0.0033607050230238,-0.2925075756515898,0.0120186842869304,0.3045262599385202,-1303.2282262906192,-6.414108449756213,COc1ccnc(N2CCN(C(=O)c3cccs3)CC2)n1,train_full
649,209,4,data/moses_wfns/archive_0_0_2.tar,-1309.6279425935795,-106.14319425544085,1740.5259829401375,-5246.913230976654,2302.9267289741742,-2.257875415902569,2.1417706790199027,-2.782598675299099,4.1746902188094,0.0222388206341622,0.00393293949889,0.0033944607534645,-0.2873299389123813,0.0079722943310538,0.2953022332434351,-1303.2282262906192,-6.399716302960314,COc1ccnc(N2CCN(C(=O)c3cccs3)CC2)n1,test_full_conformations
650,209,5,data/moses_wfns/archive_0_0_2.tar,-1309.647270785074,-106.13252109194438,1756.36432083617,-5278.57489435601,2318.7205279075297,-1.743703479317342,3.631331279822233,-0.7134032707488622,4.0909672345686126,0.0182792025226963,0.0043850677778013,0.0037869112808917,-0.2955339814469565,0.009965394168015,0.3054993756149715,-1303.2282262906192,-6.419044494454738,COc1ccnc(N2CCN(C(=O)c3cccs3)CC2)n1,train_full
651,210,0,data/moses_wfns/archive_0_0_2.tar,-1372.984101064572,-110.8390062693901,1922.5646101252617,-5692.326652072549,2507.644938326068,-4.112486914027233,-0.4646673402767685,0.6095450802792045,4.183301275315669,0.0093838361589044,0.0058878594852786,0.0038940360528686,-0.2793222878668518,-0.0082673014092467,0.2710549864576051,-1365.9814960261244,-7.002605038447427,Cc1cn2c(n1)Cc1ccc(Cl)cc1C(c1ccc(N)cc1)=N2,train_full