,MOSES id,CONFORMER id,archive name,DFT TOTAL ENERGY,DFT XC ENERGY,DFT NUCLEAR REPULSION ENERGY,DFT ONE-ELECTRON ENERGY,DFT TWO-ELECTRON ENERGY,DFT DIPOLE X,DFT DIPOLE Y,DFT DIPOLE Z,DFT TOTAL DIPOLE,DFT ROT CONSTANT A,DFT ROT CONSTANT B,DFT ROT CONSTANT C,DFT HOMO,DFT LUMO,DFT HOMO-LUMO GAP,DFT ATOMIC ENERGY,DFT FORMATION ENERGY,SMILES,SPLITS
466,142,2,data/moses_wfns/archive_0_0_1.tar,-1195.1402086069634,-110.0273812762888,1958.7933150196968,-5524.697412797608,2480.821293935,0.0833784283765917,1.9999327474844704,1.1574014508892674,2.312198320927492,0.0233281199836198,0.002532038969113,0.0023362546389601,-0.2862696288437695,-0.0065952512744202,0.2796743775693493,-1187.9949120635897,-7.145296543373661,O=C(c1cccnc1)N1CCN(c2cccc(C(F)(F)F)c2)CC1,test_full_scaffolds
467,142,3,data/moses_wfns/archive_0_0_1.tar,-1195.1771414068414,-110.07085511771996,1977.0242416399224,-5561.12049867529,2499.02025857995,0.2693264808564815,-3.7699831327255895,4.302099487208479,5.726549534594584,0.0174317438076259,0.002810544181597,0.0026166666910581,-0.2868252488503333,0.0021840661085198,0.289009314958853,-1187.9949120635897,-7.18222934325172,O=C(c1cccnc1)N1CCN(c2cccc(C(F)(F)F)c2)CC1,test_full_scaffolds
468,142,4,data/moses_wfns/archive_0_0_1.tar,-1195.1611313683604,-110.04166717327011,1963.6361336834275,-5534.534624599799,2485.8089303531274,-0.5495154502084643,3.4809557742342654,3.161343675347992,4.7342490603954746,0.0262762293576725,0.002511262193008,0.0024037720011135,-0.2932819369273209,-0.0013573426758683,0.2919245942514526,-1187.9949120635897,-7.1662193047707206,O=C(c1cccnc1)N1CCN(c2cccc(C(F)(F)F)c2)CC1,test_full_scaffolds
469,142,5,data/moses_wfns/archive_0_0_1.tar,-1195.1394072012886,-110.01299289601582,1960.309155728171,-5527.956570557526,2482.5504245342,1.436615353298794,-0.4813111087681404,2.137618202952964,2.620102219065755,0.0255741214611108,0.0025228879750082,0.0024037320226207,-0.289886899839507,-0.0080025224215596,0.2818843774179474,-1187.9949120635897,-7.144495137698868,O=C(c1cccnc1)N1CCN(c2cccc(C(F)(F)F)c2)CC1,test_full_scaffolds
470,143,0,data/moses_wfns/archive_0_0_1.tar,-927.5688793263772,-88.21999891035856,1499.9324699756232,-4237.961214905881,1898.7019903716248,-1.0209172055040403,-1.6910954480418026,5.429859793627624,5.778014635957208,0.0277654581052659,0.0048494819477115,0.0041962027356051,-0.2825790155969832,0.0072719997535727,0.2898510153505558,-921.4781206865551,-6.090758639821956,CCc1c(OC)nc2nc(-c3noc(C)n3)cn2c1C,train_full
471,144,0,data/moses_wfns/archive_0_0_1.tar,-1102.859870997691,-88.64026652269884,1315.368397661461,-4116.218756280279,1786.6501051667312,3.0596677919290274,-0.1549712653385263,3.343012670922896,4.5344588219543365,0.0257216776883565,0.0065755308290391,0.0056851851228521,-0.2897279960390896,0.0332060234782557,0.3229340195173453,-1097.2449754861227,-5.6148955115679655,Cc1[nH]cnc1Cc1nc(-c2ccccc2)cs1,test_full_conformations
472,144,1,data/moses_wfns/archive_0_0_1.tar,-1102.8511910071836,-88.64420857316175,1304.8721272043858,-4095.697342514668,1776.6369395042902,5.062879206361538,1.0178951655781003,-0.9406951764416052,5.249167918946374,0.0319250183730157,0.0056020485132343,0.0050793623257211,-0.2826594857609278,0.043607887754415,0.3262673735153428,-1097.2449754861227,-5.606215521060904,Cc1[nH]cnc1Cc1nc(-c2ccccc2)cs1,train_full
473,144,2,data/moses_wfns/archive_0_0_1.tar,-1102.863023204185,-88.62750714963904,1302.447878584384,-4090.859217925734,1774.194350173667,4.695287927231806,-1.1675298450620668,0.9563046162970148,4.931873191584551,0.0280887798088846,0.00572335983847,0.0052299491898095,-0.2825722226417508,0.040127136717786,0.3226993593595368,-1097.2449754861227,-5.618047718062371,Cc1[nH]cnc1Cc1nc(-c2ccccc2)cs1,train_full
474,144,3,data/moses_wfns/archive_0_0_1.tar,-1102.8642424187572,-88.64105444739579,1315.0342965320897,-4115.439059016533,1786.2010446275483,1.068812842310998,-2.5199984892488767,2.2182595439432897,3.5232696010951283,0.0250065869919926,0.0064857010694994,0.0054951915100709,-0.2886123674551498,0.0312621542958184,0.3198745217509682,-1097.2449754861227,-5.619266932634446,Cc1[nH]cnc1Cc1nc(-c2ccccc2)cs1,train_full
475,144,4,data/moses_wfns/archive_0_0_1.tar,-1102.850563264051,-88.61933233350987,1304.4049257765846,-4094.858297470207,1776.240734033486,6.044378306192087,1.0812822054765,0.7024879415601949,6.1803858798851,0.043657319199508,0.0052730415614154,0.0047437935918692,-0.2803741393693821,0.0460938616674252,0.3264680010368073,-1097.2449754861227,-5.605587777928349,Cc1[nH]cnc1Cc1nc(-c2ccccc2)cs1,train_full
476,144,5,data/moses_wfns/archive_0_0_1.tar,-1102.8676027347203,-88.65744386047265,1323.3892482571423,-4132.1518093512095,1794.572276536136,0.9137231221130624,-3.290722576730756,0.198268822294488,3.4209728947747577,0.0241685391728288,0.0068455573421322,0.0057197100466982,-0.2880571726209752,0.0319078585189445,0.3199650311399197,-1097.2449754861227,-5.62262724859761,Cc1[nH]cnc1Cc1nc(-c2ccccc2)cs1,train_full
477,145,0,data/moses_wfns/archive_0_0_1.tar,-934.6166927506068,-91.80617264222008,1698.4710884081735,-4640.062975915259,2098.8100941220937,-3.369063691959393,0.0697688581149952,-1.865978452076475,3.8519259387552407,0.0144982270550622,0.0063614113224379,0.0048241159959524,-0.2803533797085898,0.0317908293910412,0.312144209099631,-927.4520961523802,-7.164596598226581,COc1ccc(-c2nc3n(c2-c2ccncc2)CCC3)cc1,test_full_conformations
478,145,1,data/moses_wfns/archive_0_0_1.tar,-934.6119016106592,-91.79204329629457,1679.7449539844563,-4602.833314907072,2080.296474006326,-2.9940303988040258,-0.8581933804166234,0.6662860710202375,3.1850668808659406,0.0138308477527713,0.0060775085462852,0.0045956236666017,-0.2828470439117668,0.0363103646921296,0.3191574086038964,-927.4520961523802,-7.159805458278811,COc1ccc(-c2nc3n(c2-c2ccncc2)CCC3)cc1,train_full
479,146,0,data/moses_wfns/archive_0_0_1.tar,-915.4222306048754,-87.5552056683142,1486.0891513530446,-4195.982158379495,1882.0495047974068,-1.0334755705414975,-2.569928768863953,-1.8606497286329848,3.336858259591298,0.0167672320062054,0.0063492026393505,0.0050935537525274,-0.3033877566826822,0.0621156818656067,0.3655034385482889,-908.9862462312334,-6.435984373641986,CC(=O)NC(C(=O)NCc1ccccc1)c1ccco1,test_full_conformations
480,146,1,data/moses_wfns/archive_0_0_1.tar,-915.4264843186436,-87.54977965263488,1505.811852289553,-4235.383409942702,1901.7191084633448,0.8357905214966141,-2.65741883615709,-1.104625164228483,2.996767828850425,0.0174987583831188,0.0066238333465687,0.0056340993858159,-0.3063164856950779,0.0632752527724777,0.3695917384675556,-908.9862462312334,-6.440238087410194,CC(=O)NC(C(=O)NCc1ccccc1)c1ccco1,train_full
481,146,2,data/moses_wfns/archive_0_0_1.tar,-915.4028358273328,-87.50897659943563,1467.51402254369,-4158.331955316331,1862.9471792683653,-0.7972155182344827,2.1966213538043204,-3.8235064706685615,4.481060107357116,0.0208673628717888,0.0055028380036269,0.0044962489865863,-0.3003599150105976,0.0513865209294563,0.3517464359400539,-908.9862462312334,-6.416589596099357,CC(=O)NC(C(=O)NCc1ccccc1)c1ccco1,train_full
482,146,3,data/moses_wfns/archive_0_0_1.tar,-915.374641633507,-87.49188012582496,1463.4934850394693,-4150.617115459944,1859.2633936253,0.0323198648351868,2.758924261837472,2.7001361401217525,3.860497743997528,0.0196625233386291,0.0052008651098831,0.0045944938538637,-0.2935202944787786,0.0556066046308158,0.3491268991095944,-908.9862462312334,-6.388395402273659,CC(=O)NC(C(=O)NCc1ccccc1)c1ccco1,train_full
483,146,4,data/moses_wfns/archive_0_0_1.tar,-915.4232196518504,-87.52769249501524,1468.877210369224,-4161.45920870934,1864.7092589398487,-0.2551937792580072,-1.9134286646910528,-2.532447183219015,3.18427728937467,0.0168612725266939,0.0057963292573639,0.0047593739585154,-0.3028267570199203,0.0537774694490777,0.356604226468998,-908.9862462312334,-6.436973420616937,CC(=O)NC(C(=O)NCc1ccccc1)c1ccco1,train_full
484,147,0,data/moses_wfns/archive_0_0_1.tar,-946.9790818215392,-91.49855601159116,1645.727217123829,-4554.910051416909,2053.7308728504872,0.8214118660719927,0.2579384127627346,-0.8635623063786303,1.2194218037661997,0.0290232318915056,0.0046420110217603,0.0041426595355334,-0.2699652919477096,0.0406884538539288,0.3106537458016384,-940.3294365379984,-6.649645283540849,Nc1nc(NC2CC2)c2ncn(C3C=CC(CO)C3)c2n1,train_full
485,147,1,data/moses_wfns/archive_0_0_1.tar,-946.9793893468242,-91.45826456912744,1662.9308381071694,-4590.345848390369,2071.9227610497583,4.439969400826588,-0.4943089914337654,0.7870929631734787,4.536208217439526,0.026562039920179,0.0050153131927851,0.0044425171385569,-0.259606820260407,0.0480529143575045,0.3076597346179115,-940.3294365379984,-6.649952808825901,Nc1nc(NC2CC2)c2ncn(C3C=CC(CO)C3)c2n1,test_full_conformations
486,148,0,data/moses_wfns/archive_0_0_1.tar,-1243.5407120105367,-99.86125667244691,1670.048004476978,-5022.092618243727,2208.395505491025,-3.5539755370115342,-2.6613145567508187,3.395557152355348,5.589556839550144,0.0161950792094237,0.0077621912087191,0.00559437693559,-0.2870970286837971,0.0156609958491866,0.3027580245329837,-1237.1018961915784,-6.438815818958346,CSc1c(CCC(C)O)c(O)c(C)c(O)c1C(C)=O,test_full_structures
487,148,1,data/moses_wfns/archive_0_0_1.tar,-1243.5426079339015,-99.87459790201537,1679.1648977571335,-5040.832254613546,2218.029480179096,0.2822773856658944,-6.012864304962395,2.230509144249048,6.419453926536735,0.0164803682089588,0.0079751850636005,0.0057453150804418,-0.2345745341843247,0.0170139097705774,0.2515884439549021,-1237.1018961915784,-6.440711742323174,CSc1c(CCC(C)O)c(O)c(C)c(O)c1C(C)=O,test_full_structures
488,148,2,data/moses_wfns/archive_0_0_1.tar,-1243.5293378264307,-99.8254426021951,1729.8345224140742,-5142.38512577077,2268.8784197214977,-5.528142504118445,-1.777371459764279,-1.0536376590868637,5.901657493320974,0.0139327719589441,0.0104365143130832,0.0073624857159745,-0.2819750940825696,0.0225120830275875,0.3044871771101571,-1237.1018961915784,-6.427441634852357,CSc1c(CCC(C)O)c(O)c(C)c(O)c1C(C)=O,test_full_structures
489,149,0,data/moses_wfns/archive_0_0_1.tar,-874.6766174161355,-84.04129948637886,1439.161505356992,-4044.2140414986807,1814.4367995802315,-5.243037326801296,-1.979495064123488,-2.18507873739652,6.015181643786271,0.0232456627788163,0.008801874942019,0.0064008482456547,-0.2884208886801716,-0.0490766988049534,0.2393441898752182,-868.7927079250005,-5.883909491135,COc1cnc2c3c(nccc13)C(=O)c1ccccc1-2,train_full
490,150,0,data/moses_wfns/archive_0_0_1.tar,-1297.4118447011294,-105.49397006574644,1732.31023739717,-5212.637718391667,2288.436080664083,-2.75203907513567,5.911412341456693,0.4100435760470057,6.533502175407728,0.0293778217735505,0.0033550780613494,0.0032775717084455,-0.3240997465192388,-0.0178666917582495,0.3062330547609893,-1290.736351835297,-6.675492865832439,Cc1cccc(C)c1NC(=O)c1ccc(S(C)(=O)=O)cc1,"train_large,train_full"
491,151,0,data/moses_wfns/archive_0_0_1.tar,-940.2397788811528,-86.91355768502119,1437.3881008868093,-4134.087477185969,1843.391165596196,2.8028191449135007,-2.0807258478736355,3.963610609971248,5.2816119017379295,0.028526724547963,0.0070844198688694,0.0064030072376413,-0.2991667424171164,0.0257704100170476,0.324937152434164,-935.0704492981964,-5.169329582956152,Cc1nc(Cn2cnc3c2c(=O)[nH]c(=O)n3C)no1,test_full_conformations
492,151,1,data/moses_wfns/archive_0_0_1.tar,-940.2302026486872,-86.92591550843612,1432.700297706922,-4124.498833225649,1838.512118588192,2.8609113964284747,-2.014247356500676,0.8113962333443515,3.5917085459248623,0.0276445566797787,0.0070592351136252,0.0062852371748226,-0.2988988594520459,0.0212659714221938,0.3201648308742397,-935.0704492981964,-5.159753350490632,Cc1nc(Cn2cnc3c2c(=O)[nH]c(=O)n3C)no1,train_full
493,152,0,data/moses_wfns/archive_0_0_1.tar,-837.8446499897879,-80.69394164286618,1390.8523695002457,-3899.5127918444105,1751.5323232229582,3.895710648419111,2.138415166177688,0.0884919268512641,4.444908514273679,0.0191317570990586,0.0125796669506444,0.0082177840503367,-0.3051790727441894,-0.0028602118018332,0.3023188609423561,-831.9995950992603,-5.845054890527536,NC(=O)N1c2ccccc2CC(=O)c2ccccc21,train_full
494,153,0,data/moses_wfns/archive_0_0_1.tar,-1060.1152143171812,-96.21864908268346,1691.2146273238225,-4810.097292374458,2155.007846394571,0.8532668116733678,0.2431148711405001,0.2335344037112311,0.917446134761958,0.0204428282536746,0.007880117867968,0.0061977732264929,-0.3194608509494753,-0.027473906154379,0.2919869447950963,-1054.358845737701,-5.756368579480295,O=c1c2ccccc2nc(C(F)(F)F)n1-c1ccccc1,train_full
495,154,0,data/moses_wfns/archive_0_0_1.tar,-969.4962792266648,-92.08916744901576,1594.385697874786,-4486.356371146383,2014.586947750336,-7.019354660074624,-7.987467554722723,-1.6922071152097802,10.767290406709858,0.0142311022661524,0.0063295832437933,0.0045911517418099,-0.2829454524790941,0.0035623375502388,0.2865077900293329,-963.006167805248,-6.490111421416827,COc1ccc(C(N)=O)cc1C(=O)NCc1cccnc1,train_full
496,154,1,data/moses_wfns/archive_0_0_1.tar,-969.4889663880627,-92.10317262565044,1570.443167238579,-4437.697126153815,1989.8913645218383,-2.923728949864505,-3.6353019892356775,4.0136680437104495,6.154115914598875,0.020938833093462,0.0047825711761299,0.0041548697389713,-0.3161215532692837,0.0021714958472922,0.3182930491165759,-963.006167805248,-6.482798582814894,COc1ccc(C(N)=O)cc1C(=O)NCc1cccnc1,train_full
497,154,2,data/moses_wfns/archive_0_0_1.tar,-969.48324702098,-92.10386713495052,1562.8985473445562,-4422.544344798602,1982.2894526983243,-2.3103251780227976,-6.221094954108665,0.4031171331334747,6.648468115232871,0.0228652814985059,0.0045576503460533,0.0039728683563215,-0.3151194268958801,0.0012289416818226,0.3163483685777026,-963.006167805248,-6.477079215731919,COc1ccc(C(N)=O)cc1C(=O)NCc1cccnc1,test_full_conformations
498,155,0,data/moses_wfns/archive_0_0_1.tar,-1001.1621899288152,-90.02256661642483,1425.958783487855,-4202.854750386396,1865.775218098008,-3.885593932807438,-2.8085446199189583,-0.4284514593896631,4.813453411616116,0.0216976028270334,0.0067821560007079,0.0054155805405023,-0.2839849162990758,0.0027197572978922,0.286704673596968,-995.9894558010308,-5.172734127784224,Cc1cc(=O)c(N)nn1-c1cccc(C(F)(F)F)c1,test_full_conformations
499,155,1,data/moses_wfns/archive_0_0_1.tar,-1001.2018341018854,-89.98736745386095,1418.346152373488,-4187.505982046722,1857.9643869420927,-2.600705927627512,2.043519128089544,1.0546276085990145,3.471581936478528,0.0303799554000685,0.0059465933340635,0.0052497919749728,-0.2845536412541642,0.0028062212673011,0.2873598625214653,-995.9894558010308,-5.212378300854539,Cc1cc(=O)c(N)nn1-c1cccc(C(F)(F)F)c1,train_full
500,155,2,data/moses_wfns/archive_0_0_1.tar,-1001.2122078757252,-90.00320403960352,1420.3657409342784,-4191.600571398767,1860.0449618131763,-4.032894570096686,-1.5469234119261095,2.431268340486094,4.956639627744835,0.0267309613159723,0.0057878481579751,0.0057201633143362,-0.2834167162891128,0.0062303432265552,0.289647059515668,-995.9894558010308,-5.222752074694199,Cc1cc(=O)c(N)nn1-c1cccc(C(F)(F)F)c1,train_full
501,156,0,data/moses_wfns/archive_0_0_1.tar,-873.2604857749469,-84.70440120490389,1533.6733180959238,-4230.536821737336,1908.33273199734,1.4055108160951155,-0.6135068801468354,1.4800830786599557,2.13131350717894,0.0167927848806007,0.0115940025878656,0.0070071920870767,-0.2707655357205317,0.0038412736037204,0.2746068093242521,-867.072733182245,-6.187752592701941,Cc1ccnc2c1NC(=O)c1cccnc1N2C1CC1,train_full
502,157,0,data/moses_wfns/archive_0_0_1.tar,-1184.3667235854066,-90.22858478607832,1220.2080014734345,-4042.3915817438647,1728.0645970287017,-2.065184717419101,-4.534196367523221,1.3198934125164503,5.154225765013258,0.0456143082559671,0.0042383713868117,0.0041543825778098,-0.3043645694600987,0.0402024538500194,0.3445670233101181,-1179.0964399868133,-5.270283598593323,O=C(CN1CCCC1=O)Nc1ccc(Cl)cc1,train_full
503,157,1,data/moses_wfns/archive_0_0_1.tar,-1184.3522069702449,-90.24360378195068,1254.416815226447,-4110.498815188848,1761.9938774859036,-5.8386314614032,-3.27965807846062,2.415140108236456,7.11889571465348,0.0342931898502865,0.0052054807756847,0.0048920418897467,-0.2976905366621792,0.0407936390342408,0.33848417569642,-1179.0964399868133,-5.255766983431386,O=C(CN1CCCC1=O)Nc1ccc(Cl)cc1,train_full
504,157,2,data/moses_wfns/archive_0_0_1.tar,-1184.3678263103927,-90.26144012965815,1251.250627184783,-4104.051624742369,1758.7151137280312,-6.170660719962709,-2.4022645233257345,-3.0380576231920258,7.285445949477307,0.0315188589500917,0.005331297414325,0.0049433392330609,-0.2991110681475504,0.0407296548522679,0.3398407229998182,-1179.0964399868133,-5.271386323579463,O=C(CN1CCCC1=O)Nc1ccc(Cl)cc1,test_full_conformations
505,157,3,data/moses_wfns/archive_0_0_1.tar,-1184.3692624766693,-90.23645086884817,1253.3529348580537,-4108.063290638032,1760.5984727698506,-4.659202205139048,4.721640423140293,-0.6576400451340795,6.665924084683906,0.0309270198485121,0.0054231184612684,0.0050201600742634,-0.3011630064591404,0.0371746937905313,0.3383377002496717,-1179.0964399868133,-5.272822489856026,O=C(CN1CCCC1=O)Nc1ccc(Cl)cc1,train_full
506,158,0,data/moses_wfns/archive_0_0_1.tar,-1021.041460423515,-90.98049845824316,1363.1460629508829,-4105.463461727015,1812.273396439029,-2.781110258554298,3.823123738489511,-1.9708488361719425,5.122020551020688,0.0434839069735927,0.0041244594976485,0.0039928028684623,-0.3300700635265469,0.0078631261424153,0.3379331896689622,-1015.9412258087928,-5.10023461472224,Cc1oncc1C(=O)Nc1ccc(C(F)(F)F)cc1,train_full
507,158,1,data/moses_wfns/archive_0_0_1.tar,-1021.0469641256502,-90.99854414552368,1362.067150379907,-4103.186926786109,1811.0880474134096,-1.7518342762733097,2.643376526149976,2.871036140935014,4.277757743617766,0.040852832628192,0.0041081021089152,0.0039850470138457,-0.3232518242452956,0.0151353610657688,0.3383871853110644,-1015.9412258087928,-5.105738316857469,Cc1oncc1C(=O)Nc1ccc(C(F)(F)F)cc1,test_full_conformations
508,159,0,data/moses_wfns/archive_0_0_1.tar,-1141.309588994593,-90.24241832588535,1277.5037602753175,-4094.636612925863,1766.0815391001304,-4.20123474338893,1.840387508877097,3.295093673851139,5.647569554360786,0.0368372427422388,0.005189594111618,0.0050298371424668,-0.3058398404575809,-0.0236820190418221,0.2821578214157588,-1136.1435289849146,-5.166060009678404,O=C(c1ccccc1)c1ccc2[nH]c(=O)sc2c1,train_full
509,159,1,data/moses_wfns/archive_0_0_1.tar,-1141.3690840856982,-90.25974642738144,1294.3984211635195,-4128.238012020122,1782.7470301350943,-1.7047196985609343,1.3106766253956488,-1.1198115726443942,2.4244422915896595,0.029818351371763,0.0063543571224086,0.0054453551103387,-0.3162253900982063,-0.0214408702513933,0.294784519846813,-1136.1435289849146,-5.225555100783595,O=C(c1ccccc1)c1ccc2[nH]c(=O)sc2c1,test_full_conformations
510,160,0,data/moses_wfns/archive_0_0_1.tar,-857.6937215071102,-81.75492596539108,1296.5556961898772,-3739.6059440596337,1667.1292597800907,-3.35369129407266,-0.1182249691351885,4.600685290612547,5.694517326562842,0.0402591427875229,0.0056284522362544,0.0049447172062446,-0.2995869966150437,-0.0105497883604242,0.2890372082546195,-851.9513651070222,-5.742356400088056,Nc1ccc(-c2cc(=O)c3cc(O)ccc3o2)cc1,test_full_structures
511,161,0,data/moses_wfns/archive_0_0_1.tar,-1275.3585900742626,-102.57486054210068,1762.2906180403345,-5244.97063718414,2309.9262208272776,3.395285334240165,-5.861211987341634,0.9342051571866068,6.837726796032265,0.0128742915142936,0.0084176433401982,0.0058015029586417,-0.3197559551389494,-0.004725231141207,0.3150307239977424,-1269.1600747243665,-6.19851534989607,CC1(C)Oc2cc(C#N)sc2C(N2CCCC2=O)C1O,test_full_conformations
512,161,1,data/moses_wfns/archive_0_0_1.tar,-1275.3644621357796,-102.58801120638282,1785.31593272697,-5291.418461925468,2333.3569073940944,-2.489721660409803,-7.098653155695666,-1.6085065435523924,7.692651290149102,0.0134966527999819,0.0086383457535049,0.0059026250793073,-0.3068533940801405,0.0077379956369849,0.3145913897171254,-1269.1600747243665,-6.204387411413109,CC1(C)Oc2cc(C#N)sc2C(N2CCCC2=O)C1O,train_full