,MOSES id,CONFORMER id,archive name,DFT TOTAL ENERGY,DFT XC ENERGY,DFT NUCLEAR REPULSION ENERGY,DFT ONE-ELECTRON ENERGY,DFT TWO-ELECTRON ENERGY,DFT DIPOLE X,DFT DIPOLE Y,DFT DIPOLE Z,DFT TOTAL DIPOLE,DFT ROT CONSTANT A,DFT ROT CONSTANT B,DFT ROT CONSTANT C,DFT HOMO,DFT LUMO,DFT HOMO-LUMO GAP,DFT ATOMIC ENERGY,DFT FORMATION ENERGY,SMILES,SPLITS
140,39,3,data/moses_wfns/archive_0_0_0.tar,-1295.430752896318,-99.23191785171484,1508.1627486781963,-4768.869680511861,2064.527327986945,-4.371003108525032,-0.0186203053925572,0.800106579087263,4.443668015098239,0.0218577462390052,0.0075623686160774,0.0062051753192956,-0.2903627806243838,0.0222079723325211,0.3125707529569049,-1290.3148247574895,-5.115928138828394,Nc1ncnc2c1ncn2Cc1c(F)cccc1Cl,"train_large,train_full"
141,40,0,data/moses_wfns/archive_0_0_0.tar,-1697.793472162477,-115.51193198149494,1752.834248625762,-5813.132291871012,2478.040462330848,1.0712631939652226,-2.9393159979791266,-1.872344804822586,3.645937250538841,0.014384644589395,0.0074844556728271,0.0055700693576648,-0.3259366028096777,0.0248832510131526,0.3508198538228302,-1692.602517959067,-5.190954203410001,Clc1ccc(C2(Cn3cncn3)OCCO2)c(Cl)c1,train_full
142,40,1,data/moses_wfns/archive_0_0_0.tar,-1697.8248662414546,-115.47878007937128,1753.5445141977289,-5814.503130250199,2478.6366469494187,-0.9023537351520604,-4.036125454705388,0.9027890180301004,4.233152366799405,0.0136176646585512,0.0076698765833578,0.0066151542218674,-0.3288581577801834,0.0283157359767428,0.3571738937569262,-1692.602517959067,-5.222348282387657,Clc1ccc(C2(Cn3cncn3)OCCO2)c(Cl)c1,train_full
143,40,2,data/moses_wfns/archive_0_0_0.tar,-1697.8286404184082,-115.46329902350196,1724.2043113492523,-5755.532295934508,2448.986363307294,-2.1774716620530112,-1.4772654398793217,-0.4109155589354956,2.663183736710822,0.0227254266788624,0.005513847709366,0.0050307467952981,-0.3322707868878959,0.0247688969812116,0.3570396838691075,-1692.602517959067,-5.226122459341241,Clc1ccc(C2(Cn3cncn3)OCCO2)c(Cl)c1,test_full_conformations
144,40,3,data/moses_wfns/archive_0_0_0.tar,-1697.8371321003035,-115.44424513881472,1730.56403809778,-5768.497140987514,2455.5641052649853,-2.122769877318322,-1.3418394191222345,1.637184088527858,2.99784201026157,0.0246114912343057,0.0056000686738035,0.005171321381932,-0.3353286766136775,0.0266593597600402,0.3619880363737177,-1692.602517959067,-5.2346141412367615,Clc1ccc(C2(Cn3cncn3)OCCO2)c(Cl)c1,train_full
145,41,0,data/moses_wfns/archive_0_0_0.tar,-987.275566697913,-97.0762744863006,1885.43913039861,-5084.794218688362,2309.190432049285,1.6204951041584088,0.561948341206009,2.3188891344939244,2.884274109522106,0.0164363945832777,0.0047165780553118,0.0044552272688585,-0.262240309241762,0.0032765661476786,0.2655168753894406,-979.7520429836392,-7.523523714273779,Cc1cc(Cc2cnc(N)nc2N)c2cccnc2c1N(C)C,train_full
146,41,1,data/moses_wfns/archive_0_0_0.tar,-987.2377266169336,-97.1092078836825,1891.8195970060387,-5097.538168782021,2315.624698384984,-0.9455941171455152,0.4252949151005439,-0.1702948475472013,1.0507256227444488,0.0151142319857006,0.0051671082465578,0.0043310354729517,-0.2445091571783303,0.0174177578732535,0.2619269150515838,-979.7520429836392,-7.48568363329457,Cc1cc(Cc2cnc(N)nc2N)c2cccnc2c1N(C)C,test_full_conformations
147,41,2,data/moses_wfns/archive_0_0_0.tar,-987.2468075055028,-97.11286459757603,1895.2591815122423,-5104.489209161938,2319.130923018517,-1.3762887345003505,-1.6392924689555388,-0.2353952041435359,2.153337266110606,0.0154760394289538,0.0051653672485789,0.0043776805996646,-0.2456564244307846,0.0180730214294175,0.2637294458602021,-979.7520429836392,-7.494764521863772,Cc1cc(Cc2cnc(N)nc2N)c2cccnc2c1N(C)C,train_full
148,41,3,data/moses_wfns/archive_0_0_0.tar,-987.2743795793352,-97.09628112407655,1884.850440288004,-5083.457391693861,2308.463386495981,0.2744533709974425,0.7447831463910679,-1.5684537105752068,1.757860526383471,0.0160923420004303,0.0049550658956752,0.0041989276724836,-0.2685851135085116,0.0029121931251754,0.271497306633687,-979.7520429836392,-7.522336595696061,Cc1cc(Cc2cnc(N)nc2N)c2cccnc2c1N(C)C,train_full
149,42,0,data/moses_wfns/archive_0_0_0.tar,-1086.5666796064304,-102.00428489046584,1782.648021440437,-5021.82132522503,2254.633239254236,0.5595954900330196,-0.0465870546047289,2.2709126842394523,2.3393079928820133,0.0196226109138351,0.0033602888382617,0.003075660706213,-0.2970169395545571,0.0021905579801934,0.2992074975347505,-1079.5108930224485,-7.055786583981899,CC(=O)Nc1ccc(OC(=O)c2ccccc2OC(C)=O)cc1,train_full
150,43,0,data/moses_wfns/archive_0_0_0.tar,-1160.912320195121,-92.37411357407882,1330.351131395711,-4225.840689555477,1826.97098608144,-7.500169830189749,2.5141509458445324,-5.15452598692306,9.441538042609617,0.0547514921828531,0.0036478924420678,0.003523639171306,-0.3051037677911472,0.024542614590198,0.3296463823813452,-1155.3803107666536,-5.532009428467518,NS(=O)(=O)c1ccc(NCc2ccccc2)cc1,train_full
151,43,1,data/moses_wfns/archive_0_0_0.tar,-1160.9226920841234,-92.39252619883412,1400.1652952823315,-4366.341164310883,1897.6677377871365,-3.5235650716563987,-2.318292497270758,5.300522358962384,6.7738857530193854,0.0269534800754316,0.0058615027713629,0.0053334661164969,-0.3032171557983106,0.0295365261868619,0.3327536819851725,-1155.3803107666536,-5.54238131746979,NS(=O)(=O)c1ccc(NCc2ccccc2)cc1,train_full
152,43,2,data/moses_wfns/archive_0_0_0.tar,-1160.920833254797,-92.40539257803208,1332.4694938979665,-4229.998015660776,1829.03289807706,-7.578038832276816,0.3949540484512081,-5.615283543178667,9.440024921268828,0.0547726487954597,0.0036430954643758,0.0035214786497268,-0.3025749547574266,0.0298768496052003,0.3324518043626269,-1155.3803107666536,-5.540522488143097,NS(=O)(=O)c1ccc(NCc2ccccc2)cc1,test_full_conformations
153,43,3,data/moses_wfns/archive_0_0_0.tar,-1160.915908754783,-92.40140994613586,1399.6693113480696,-4365.336379705787,1897.1744912905249,-2.832933798090996,7.492918588279408,-2.6446460370859564,8.43584586964602,0.0264851860382405,0.0058749907683576,0.005320013045053,-0.3037915536186449,0.031634862123512,0.3354264157421569,-1155.3803107666536,-5.535597988129439,NS(=O)(=O)c1ccc(NCc2ccccc2)cc1,train_full
154,43,4,data/moses_wfns/archive_0_0_0.tar,-1160.912219681132,-92.40827026489865,1399.5459558160856,-4364.903145618791,1896.8751699640493,-6.596864317968291,4.625489153968104,-2.6620081252384624,8.485284674187154,0.0275463087897483,0.0057272871010587,0.0052320940186486,-0.302366639939022,0.0299167448275529,0.3322833847665749,-1155.3803107666536,-5.531908914478436,NS(=O)(=O)c1ccc(NCc2ccccc2)cc1,train_full
155,44,0,data/moses_wfns/archive_0_0_0.tar,-915.0950849866374,-88.63327050543565,1591.4243615335208,-4400.491992278172,1982.632042123364,-5.65499316699529,1.3453659522506185,-6.222738248961255,8.51536426580355,0.0119736547421423,0.0094009832466489,0.0057286081776015,-0.2952236719116265,-0.0148339190851468,0.2803897528264797,-908.6007803009376,-6.494304685699831,CC1(C)C=C(n2ccccc2=O)c2cc(C#N)ccc2O1,train_full
156,44,1,data/moses_wfns/archive_0_0_0.tar,-915.145409517884,-88.61618252905603,1595.3027804791575,-4408.757791411486,1986.952119381012,-4.321142875153459,-2.1137676808899992,2.34046655698536,5.349586270042899,0.0109760082246581,0.0105239053704075,0.0060761118368331,-0.2903274096211644,-0.0039663544084828,0.2863610552126815,-908.6007803009376,-6.544629216946532,CC1(C)C=C(n2ccccc2=O)c2cc(C#N)ccc2O1,test_full_conformations
157,45,0,data/moses_wfns/archive_0_0_0.tar,-3352.0099250569974,-143.69542732643717,1685.6244368698942,-7988.82123302095,3094.902930509096,0.3783979564373153,-4.079902695538485,-0.7403664330727816,4.163764339359163,0.0110665270192162,0.007302441188452,0.0046408795531205,-0.3055708877213453,-0.0156320814840448,0.2899388062373004,-3346.599417935401,-5.410507121596311,O=C1CN=C(c2ccccn2)c2cc(Br)ccc2N1,train_full
158,46,0,data/moses_wfns/archive_0_0_0.tar,-3408.1940306253587,-144.72281052174816,1638.45722440045,-7980.844394389921,3078.936459832035,-6.436693248209696,-4.259843963470207,-1.6724807907014951,7.897751740839119,0.0254070428173932,0.0043276821471464,0.0040447126309272,-0.3101852877058743,0.0060963525009778,0.316281640206852,-3403.495712043059,-4.698318582299635,O=c1[nH]c(=O)n(C2CC(O)C(CO)O2)cc1Br,test_full_structures
159,46,1,data/moses_wfns/archive_0_0_0.tar,-3408.191959788807,-144.72080413061008,1640.2488034237826,-7983.040043088913,3079.3404572126483,-2.960360887172924,-2.6154927261740384,-0.9332941219135852,4.05901178872038,0.024335991938131,0.0046167034921561,0.0039891135662486,-0.3178924264605607,-0.0007457532067034,0.3171466732538573,-3403.495712043059,-4.696247745747769,O=c1[nH]c(=O)n(C2CC(O)C(CO)O2)cc1Br,test_full_structures
160,46,2,data/moses_wfns/archive_0_0_0.tar,-3408.1866652289327,-144.73773842834174,1639.9553891513433,-7983.1823879495905,3079.7977655632835,-4.772494279030975,-1.3696454820187092,-0.2811864049467261,4.973097242576754,0.0205753211191066,0.0049725747275523,0.0040689160830763,-0.3190705049659578,-0.0034873362227112,0.3155831687432466,-3403.495712043059,-4.690953185873696,O=c1[nH]c(=O)n(C2CC(O)C(CO)O2)cc1Br,test_full_structures
161,47,0,data/moses_wfns/archive_0_0_0.tar,-5623.216911518339,-182.74511270116807,1374.0593796823953,-10544.22511521601,3729.704649791761,-0.109605230187368,0.3549531331719886,0.4421983238544866,0.5775330214392549,0.0145859000026625,0.0092238331629796,0.0056505424579202,-0.2933667641345416,-0.0122237446872975,0.2811430194472441,-5619.908797227922,-3.308114290416597,Oc1c(Br)cc(Br)c2cccnc12,train_full
162,48,0,data/moses_wfns/archive_0_0_0.tar,-927.8662367462524,-87.34408808964221,1533.305221781262,-4308.571219259439,1934.7702383733,-4.56282500116487,0.5713176623490156,-1.1368339238383356,4.736894260267671,0.0271677885901583,0.0068558335335423,0.0057967806233555,-0.2913578861445934,0.0338683753800434,0.3252262615246368,-921.8635866168512,-6.002650129401104,CN(CCO)c1nc2c(c(=O)n(C)c(=O)n2C)n1C,test_full_conformations
163,48,1,data/moses_wfns/archive_0_0_0.tar,-927.8759520430468,-87.33663755510084,1528.689743149317,-4299.0933452304525,1929.8904457387064,-3.111971158229616,0.6578553515314686,-0.4138050135739662,3.2075493359339804,0.0245475870261301,0.0068501522758419,0.0059882871067078,-0.2847564005554943,0.0389399800471219,0.3236963806026162,-921.8635866168512,-6.012365426195629,CN(CCO)c1nc2c(c(=O)n(C)c(=O)n2C)n1C,train_full
164,49,0,data/moses_wfns/archive_0_0_0.tar,-1180.9134144797767,-112.51680570627856,2254.122845036954,-6085.10630425551,2762.620324241444,7.571495928376566,-1.6278238447786006,-1.585175805610283,7.9050707395788,0.0158174013326154,0.0036194186838683,0.0031038220588892,-0.2861720389503121,-0.0396275016783848,0.2465445372719273,-1172.9534210421043,-7.95999343767221,CCC1(O)C(=O)OCc2c1cc1n(c2=O)Cc2cc3ccccc3nc2-1,train_full
165,50,0,data/moses_wfns/archive_0_0_0.tar,-1336.5644815405735,-105.30435737722456,1762.6900088486498,-5328.211831554465,2334.2877929721744,-0.4606228405515183,0.2945004909662562,1.6987495643946489,1.7845598961503435,0.0114163909398802,0.0089859059557349,0.0054761811226639,-0.2883673364027891,0.017609069462557,0.3059764058653461,-1330.288837356704,-6.275644183869645,CN1C(=O)CC(=O)N(c2ccccc2)c2cc(Cl)ccc21,train_full
166,51,0,data/moses_wfns/archive_0_0_0.tar,-1736.0051373318354,-123.58975448961064,2000.2480394185127,-6354.931687881875,2742.298855902888,-6.07021114114999,-1.4415589406673146,-6.99552191290142,9.373520273165427,0.0244203185196004,0.0030348922261138,0.0028498725293156,-0.3316886067524976,-0.0130404491083029,0.3186481576441947,-1729.6512176393378,-6.353919692497584,NS(=O)(=O)c1cc2c(cc1Cl)CN(C1CCCCC1)C2=O,train_full
167,51,1,data/moses_wfns/archive_0_0_0.tar,-1736.010742157742,-123.5615609067503,2006.2011409806432,-6367.091431773163,2748.4719540010046,-3.543051776890212,-6.822336958706253,0.1188392581512975,7.688408173421344,0.0236642349352086,0.0031922444411652,0.0029611830816672,-0.3343723385575982,-0.0126424440728697,0.3217298944847285,-1729.6512176393378,-6.359524518404214,NS(=O)(=O)c1cc2c(cc1Cl)CN(C1CCCCC1)C2=O,test_full_conformations
168,52,0,data/moses_wfns/archive_0_0_0.tar,-1660.6482489535315,-118.49718235182068,1933.0350186193525,-6117.104167747832,2641.94477664142,3.6701924774892527,-4.440815926295314,-0.9286013592825864,5.835534199841371,0.0103544204531677,0.0075593708829302,0.0046613274469858,-0.2632036695307124,0.0054936972705524,0.2686973668012647,-1654.2890736105333,-6.359175342998242,CCc1cc2c(s1)N(C)C(=O)CN=C2c1ccccc1Cl,train_full
169,52,1,data/moses_wfns/archive_0_0_0.tar,-1660.6790240449934,-118.45500291004296,1963.619111671621,-6178.182727195163,2672.3672255133,1.405643396521124,-3.557629288202864,0.72322639841143,3.8930214401954455,0.010678357734593,0.0084336687310006,0.0054484901193488,-0.2859973626095647,-0.0017453327103384,0.2842520298992263,-1654.2890736105333,-6.389950434460161,CCc1cc2c(s1)N(C)C(=O)CN=C2c1ccccc1Cl,train_full
170,52,2,data/moses_wfns/archive_0_0_0.tar,-1660.6782145699628,-118.4559498412092,1956.167367126192,-6163.302591009866,2664.939881248168,1.3195613353288902,-3.4003806354285504,-1.1611024176931954,3.827791714274096,0.010388318021733,0.0081457149243808,0.005438019559685,-0.2866563868918296,0.0010664980454914,0.287722884937321,-1654.2890736105333,-6.3891409594295965,CCc1cc2c(s1)N(C)C(=O)CN=C2c1ccccc1Cl,test_full_conformations
171,53,0,data/moses_wfns/archive_0_0_0.tar,-954.6727799748854,-91.77078780564489,1744.300849111038,-4762.615375864428,2155.4459576718045,0.0301483358627207,-4.260070712329307,-4.101029020393294,5.913336657278123,0.0122256839420556,0.0099480261013078,0.0063247061004107,-0.3115337222128045,0.0248531490359208,0.3363868712487253,-947.7893320904384,-6.883447884447151,CC1(C)Oc2ccc(C#N)cc2C(N2CCCC2=O)C1O,test_full_conformations
172,53,1,data/moses_wfns/archive_0_0_0.tar,-954.6587355636444,-91.747812432003,1743.3986784869842,-4760.930838777532,2154.6551292016766,-1.2509080399847834,-7.476953463396222,2.328128621661844,7.930308121207675,0.0113035511053781,0.0100321831551412,0.0064255147855266,-0.3154991853699886,0.018603718606165,0.3341029039761536,-947.7893320904384,-6.869403473206148,CC1(C)Oc2ccc(C#N)cc2C(N2CCCC2=O)C1O,train_full
173,54,0,data/moses_wfns/archive_0_0_0.tar,-926.5956336678316,-86.93508433431987,1474.734540128155,-4191.544984237498,1877.176286895996,-0.9141716491738988,-5.123183438874199,-4.640458142189701,6.9725583627477,0.0259386586636807,0.0064547975978841,0.0054232902976519,-0.2732163109352437,0.0422771016102576,0.3154934125455013,-920.858600100119,-5.737033567712615,Nc1nc2c(ncn2C2CC(CO)C2CO)c(=O)[nH]1,test_full_structures
174,54,1,data/moses_wfns/archive_0_0_0.tar,-926.6059641801844,-86.93472922086775,1502.609569617494,-4248.0505406293605,1905.7957346893013,-2.826563007555338,-4.58109345672375,6.357927375425494,8.330613195083682,0.0207720870653668,0.0077804648823994,0.0064261941097471,-0.2616932308738445,0.057801494713529,0.3194947255873735,-920.858600100119,-5.7473640800652674,Nc1nc2c(ncn2C2CC(CO)C2CO)c(=O)[nH]1,test_full_structures
175,54,2,data/moses_wfns/archive_0_0_0.tar,-926.5937809968844,-86.97619328112279,1481.604446784682,-4205.17817837327,1883.9825527660523,-1.8146108714156075,-5.777840731292909,-3.862755668467391,7.183114748152367,0.0245611834211941,0.0064972700050323,0.0058106681608238,-0.2666703452331327,0.0462105899201713,0.312880935153304,-920.858600100119,-5.735180896765314,Nc1nc2c(ncn2C2CC(CO)C2CO)c(=O)[nH]1,test_full_structures
176,55,0,data/moses_wfns/archive_0_0_0.tar,-847.4905618183835,-84.15614650943326,1583.6108952013765,-4294.924638162171,1948.0169811556136,1.8963172604507967,-2.560615786370035,2.3948922279556224,3.986010680017465,0.0323569141923835,0.0065493356467972,0.005767601541648,-0.2713299555914126,0.0462641342506312,0.3175940898420438,-840.3690095288453,-7.121552289538272,CC12CCC3=C(CCc4cc(O)ccc43)C1CCC2=O,test_full_scaffolds
177,56,0,data/moses_wfns/archive_0_0_0.tar,-1542.0091600863077,-103.47392184316112,1399.167139429393,-4897.636806596941,2059.9506281739928,5.066828873057569,2.1965669729963584,-2.325277748552693,5.992042882325067,0.0226073136195172,0.0079109171009261,0.0061434151594831,-0.3224167296692624,-0.012397966441472,0.3100187632277904,-1537.6457613767784,-4.363398709529065,CNC(=O)c1ccc(Cl)c(S(=O)(=O)NC)c1,test_full_conformations
178,56,1,data/moses_wfns/archive_0_0_0.tar,-1542.0464235361887,-103.45178385529894,1400.6065326429054,-4899.529130302907,2060.34468397856,-0.6810016536068991,-0.0848868552851323,-4.058537862759509,4.116150946438681,0.0263839530390624,0.0081142315280601,0.0066432262080535,-0.3411229849354441,-0.0177424962182411,0.323380488717203,-1537.6457613767784,-4.400662159410331,CNC(=O)c1ccc(Cl)c(S(=O)(=O)NC)c1,train_full
179,57,0,data/moses_wfns/archive_0_0_0.tar,-5622.2103930146,-181.2177684331639,1262.127882637961,-10323.22491213341,3620.114539687463,2.006838974684052,2.4653869599589004,-1.0559165528680878,3.3497007775721026,0.0124242734948591,0.009956487623999,0.0055329656011089,-0.3186878402045733,-0.0220212513113247,0.2966665888932486,-5619.289276641485,-2.9211163731142733,NC(=O)c1cc(Br)cc(Br)c1O,train_full
180,58,0,data/moses_wfns/archive_0_0_0.tar,-1417.05046665294,-111.51731632161386,1744.8407672419935,-5408.888051910939,2358.535394463061,-4.720498311302005,6.496728996257328,-4.315763284868316,9.116819878051404,0.0301580838436142,0.0032121692662726,0.0030217211603143,-0.3444978218689015,-0.0306704831408508,0.3138273387280507,-1411.354132608188,-5.696334044751893,O=C(c1ccccc1)c1cccc(NS(=O)(=O)C(F)F)c1,train_full
181,58,1,data/moses_wfns/archive_0_0_0.tar,-1417.0711354383432,-111.54276535353598,1794.1394247571886,-5508.262910946605,2408.6165233559614,-1.1643941446204902,6.12849310115081,-5.453600390227554,8.28589154111793,0.0217589918288595,0.0040562532533198,0.0037569966108022,-0.334676848307349,-0.0219777507293227,0.3126990975780263,-1411.354132608188,-5.717002830155025,O=C(c1ccccc1)c1cccc(NS(=O)(=O)C(F)F)c1,train_full
182,58,2,data/moses_wfns/archive_0_0_0.tar,-1417.0435381956663,-111.51225363761472,1753.3409525282218,-5426.2001281933735,2367.3484186963706,-2.2450585195761588,-6.229477892575647,3.293618880452025,7.39558029501947,0.0222044274846482,0.0036279013589266,0.0033239406962754,-0.3250968989638937,-0.0282950783875895,0.2968018205763042,-1411.354132608188,-5.689405587478404,O=C(c1ccccc1)c1cccc(NS(=O)(=O)C(F)F)c1,train_full
183,58,3,data/moses_wfns/archive_0_0_0.tar,-1417.0608557756318,-111.54005845696985,1766.5010436077998,-5452.628423743029,2380.626967247372,-2.2750022642441823,-1.9426084856019188,1.9861734838773728,3.590856184631504,0.0169641186765845,0.0042426195233739,0.0038254350766403,-0.3264112500169696,-0.0132743588755558,0.3131368911414138,-1411.354132608188,-5.70672316744367,O=C(c1ccccc1)c1cccc(NS(=O)(=O)C(F)F)c1,test_full_conformations
184,58,4,data/moses_wfns/archive_0_0_0.tar,-1417.0777206093903,-111.56540527817148,1791.2312810731753,-5501.72542445181,2405.0030403439946,-3.77205457721531,-1.5888927121136494,2.775796774577638,4.945505385484325,0.0151754669680674,0.0050109286303963,0.0039950864568768,-0.335614400933983,-0.0202049983008013,0.3154094026331817,-1411.354132608188,-5.723588001202188,O=C(c1ccccc1)c1cccc(NS(=O)(=O)C(F)F)c1,train_full
185,59,0,data/moses_wfns/archive_0_0_0.tar,-1070.0539272802023,-103.55512649906414,1969.8647385147965,-5367.749212174,2431.417353590617,-3.3492395119978644,-1.6883338758874444,-1.2370044031462564,3.949437488883707,0.0100723848076706,0.0044313303965182,0.0039032238578769,-0.2762558182004279,0.0379675217118673,0.3142233399122952,-1062.1886166345876,-7.865310645614954,OCCN(CCO)c1nc(-c2ccccc2)c(-c2ccccc2)o1,train_full
186,59,1,data/moses_wfns/archive_0_0_0.tar,-1070.041740184473,-103.53534672878196,1959.359401670152,-5346.706253083752,2420.87161072256,-3.143491417971629,-0.0877435289980369,-0.4628744414640476,3.1785987432047738,0.0098010193721222,0.0044323420328193,0.0038586099992494,-0.3002813423032909,0.0464229208675225,0.3467042631708134,-1062.1886166345876,-7.853123549885367,OCCN(CCO)c1nc(-c2ccccc2)c(-c2ccccc2)o1,train_full