,MOSES id,CONFORMER id,archive name,DFT TOTAL ENERGY,DFT XC ENERGY,DFT NUCLEAR REPULSION ENERGY,DFT ONE-ELECTRON ENERGY,DFT TWO-ELECTRON ENERGY,DFT DIPOLE X,DFT DIPOLE Y,DFT DIPOLE Z,DFT TOTAL DIPOLE,DFT ROT CONSTANT A,DFT ROT CONSTANT B,DFT ROT CONSTANT C,DFT HOMO,DFT LUMO,DFT HOMO-LUMO GAP,DFT ATOMIC ENERGY,DFT FORMATION ENERGY,SMILES,SPLITS
94,26,3,data/moses_wfns/archive_0_0_0.tar,-1265.1902034508248,-115.57270730545244,2318.8748526755253,-6339.681450227452,2871.225157121638,-1.4258392930442425,-0.6705134956558145,-1.6146009368453784,2.256001379145735,0.0136244358412678,0.0050746814031487,0.0043779902112294,-0.3314184866067381,0.0044803510982381,0.3358988377049762,-1258.2366558691458,-6.953547581679004,CC(c1ncncc1F)C(O)(Cn1cncn1)c1ccc(F)cc1F,train_full
95,26,4,data/moses_wfns/archive_0_0_0.tar,-1265.2122290086224,-115.59431478602468,2316.94024387356,-6336.34601551054,2869.823681872879,-3.721854086893338,-1.5438523207084494,-1.3544563001932313,4.250909279367726,0.0133919962930274,0.0049127960046619,0.0044268939460327,-0.3225853089797748,0.0146576059814276,0.3372429149612024,-1258.2366558691458,-6.975573139476637,CC(c1ncncc1F)C(O)(Cn1cncn1)c1ccc(F)cc1F,train_full
96,26,5,data/moses_wfns/archive_0_0_0.tar,-1265.159424475652,-115.57080024412674,2318.3158295159706,-6338.73779449438,2870.868000849738,0.607096496604197,-2.132813297787938,0.6298420748321237,2.305246138406696,0.0101533203173538,0.0060547898305923,0.0046423319005743,-0.3270474388074752,0.0008559463095121,0.3279033851169873,-1258.2366558691458,-6.922768606506224,CC(c1ncncc1F)C(O)(Cn1cncn1)c1ccc(F)cc1F,train_full
97,26,6,data/moses_wfns/archive_0_0_0.tar,-1265.169751529682,-115.5616863670025,2319.7517739397927,-6341.528011099703,2872.203624558945,0.4127646929796331,-2.086340358956761,2.266833478857276,3.108331514824405,0.0093063729246518,0.0064111574900953,0.0052106147745695,-0.323231962141424,-0.0017121609979259,0.3215198011434981,-1258.2366558691458,-6.93309566053631,CC(c1ncncc1F)C(O)(Cn1cncn1)c1ccc(F)cc1F,train_full
98,26,7,data/moses_wfns/archive_0_0_0.tar,-1265.2114431938744,-115.52800661786031,2328.022546770408,-6358.095559446963,2880.425278952986,1.526757708990604,0.1918876688643,-0.4244342182459182,1.5962313068732985,0.009877169075926,0.0063835904278612,0.0048215704651854,-0.3334320842742445,-0.0010145660494007,0.3324175182248438,-1258.2366558691458,-6.974787324728595,CC(c1ncncc1F)C(O)(Cn1cncn1)c1ccc(F)cc1F,train_full
99,26,8,data/moses_wfns/archive_0_0_0.tar,-1265.1520111040104,-115.54342852021088,2312.943571549265,-6327.668050195223,2865.1513941257786,1.218928970351557,-0.591402860777648,-3.0372155750039567,3.325691451043664,0.0080749347687169,0.0066475161856414,0.0048410325778072,-0.3309285645425774,-0.004854912478726,0.3260736520638514,-1258.2366558691458,-6.915355234864592,CC(c1ncncc1F)C(O)(Cn1cncn1)c1ccc(F)cc1F,train_full
100,26,9,data/moses_wfns/archive_0_0_0.tar,-1265.1693199957049,-115.6089604452511,2321.742018752832,-6345.33022232616,2874.0633206577395,-0.693984977026143,-0.8229752264549609,-3.0990731298754084,3.280725169228951,0.0098097130143135,0.0060872325988712,0.004988254913065,-0.3265773560560748,0.0023071593927455,0.3288845154488203,-1258.2366558691458,-6.932664126559075,CC(c1ncncc1F)C(O)(Cn1cncn1)c1ccc(F)cc1F,train_full
101,26,10,data/moses_wfns/archive_0_0_0.tar,-1265.203394695439,-115.54812146584972,2331.97515621958,-6365.810911370003,2884.216137839108,-1.484446058324192,0.2243349354832625,-3.0636993588667125,3.411767873826239,0.0092191090982633,0.0067351232232781,0.0049275693143906,-0.3353181983642548,0.0077261993179165,0.3430443976821713,-1258.2366558691458,-6.966738826293522,CC(c1ncncc1F)C(O)(Cn1cncn1)c1ccc(F)cc1F,test_full_conformations
102,26,11,data/moses_wfns/archive_0_0_0.tar,-1265.1618772852053,-115.5507808563682,2308.304978913871,-6318.404825297532,2860.523638327007,3.284624752978681,-2.719661920273152,0.9868121879397832,4.377113092293894,0.0091973315282035,0.0064195089531111,0.0047182441717118,-0.3313082927653819,-0.0114949718712715,0.3198133208941103,-1258.2366558691458,-6.925221416059458,CC(c1ncncc1F)C(O)(Cn1cncn1)c1ccc(F)cc1F,train_full
103,26,12,data/moses_wfns/archive_0_0_0.tar,-1265.1808929894496,-115.52444798736856,2311.5924107118244,-6325.230739246946,2864.0168818670595,-1.7753114919378985,-1.9676140799347617,-3.5746543305874856,4.449875239167066,0.0109605138835117,0.0055100321315883,0.0044126802591284,-0.3255225901276573,0.0139757475166522,0.3394983376443095,-1258.2366558691458,-6.9442371203037965,CC(c1ncncc1F)C(O)(Cn1cncn1)c1ccc(F)cc1F,train_full
104,26,13,data/moses_wfns/archive_0_0_0.tar,-1265.2219382666574,-115.49762485390748,2312.918136194273,-6327.945976532885,2865.339480151325,-0.3965839983563299,-0.9394793926548984,-1.6014232644473871,1.89854072089298,0.0101723505631084,0.0058749852011015,0.0046990744368752,-0.3373403167999767,-0.0044935675148852,0.3328467492850915,-1258.2366558691458,-6.985282397511583,CC(c1ncncc1F)C(O)(Cn1cncn1)c1ccc(F)cc1F,train_full
105,27,0,data/moses_wfns/archive_0_0_0.tar,-994.8592934572708,-97.3739455913451,1830.978165593558,-4987.086944464292,2258.6542011308743,3.019775107189129,-0.6414948306998517,-1.5632346132002997,3.460384338729043,0.0141297193021404,0.0048152270851121,0.0038232658478872,-0.2787566968255334,0.0029904751823496,0.281747172007883,-987.2119385360792,-7.647354921191663,COc1ccc(C=C2CCCN=C2c2cccnc2)c(OC)c1,train_full
106,27,1,data/moses_wfns/archive_0_0_0.tar,-994.8912466127056,-97.34965020395964,1832.692146001896,-4990.543998553199,2260.3417837449897,3.884975274449521,0.265558701592459,1.551431021541675,4.191717132832015,0.0150960406412831,0.0043708487280932,0.0040204770483813,-0.284255330429548,0.0073506143825629,0.2916059448121109,-987.2119385360792,-7.679308076626398,COc1ccc(C=C2CCCN=C2c2cccnc2)c(OC)c1,train_full
107,27,2,data/moses_wfns/archive_0_0_0.tar,-994.8775378981526,-97.36869109129418,1860.5884255750004,-5045.999898250822,2287.936252955258,5.859208024581903,-1.6135969074906795,-0.1539062793169857,6.079284563005884,0.0160934801630618,0.0047554821707937,0.0038421088366143,-0.2861526403395202,0.0051043166834387,0.2912569570229589,-987.2119385360792,-7.665599362073408,COc1ccc(C=C2CCCN=C2c2cccnc2)c(OC)c1,train_full
108,27,3,data/moses_wfns/archive_0_0_0.tar,-994.8760403031,-97.36066529222676,1844.049153061351,-5013.069703888213,2271.537173305901,3.1198421708044286,-3.286209207357656,0.3446879806771247,4.544380698101249,0.0153050447050288,0.0046860498206993,0.0038070266692562,-0.2901650916763325,0.0045905618489668,0.2947556535252992,-987.2119385360792,-7.664101767020952,COc1ccc(C=C2CCCN=C2c2cccnc2)c(OC)c1,test_full_conformations
109,27,4,data/moses_wfns/archive_0_0_0.tar,-994.8847485984228,-97.3474013316349,1922.4831584176825,-5170.477181393344,2350.4914757235247,2.055731023734768,-1.256321582113624,-1.4418809411501556,2.8077383439491177,0.0120715516272992,0.0067344296822439,0.005558533139921,-0.2814319581296036,0.0039883952547737,0.2854203533843772,-987.2119385360792,-7.672810062343501,COc1ccc(C=C2CCCN=C2c2cccnc2)c(OC)c1,train_full
110,27,5,data/moses_wfns/archive_0_0_0.tar,-994.8917546052952,-97.39050013385489,1956.819338421333,-5239.361434215283,2385.0768130476526,1.4895105207354395,-0.4908088584462862,0.7472539754866193,1.7372171513059225,0.0133703758420123,0.00688775699792,0.0059338329976513,-0.282587878124045,0.0077264082789563,0.2903142864030013,-987.2119385360792,-7.679816069215917,COc1ccc(C=C2CCCN=C2c2cccnc2)c(OC)c1,train_full
111,27,6,data/moses_wfns/archive_0_0_0.tar,-994.887395743938,-97.36659227766826,1928.3975878249933,-5182.196651023168,2356.313381795028,3.154502783197412,1.4522752770453058,2.34577559810713,4.190782080494296,0.0114735818094304,0.007006794476709,0.005735466389737,-0.2823029359570463,0.0073515145331295,0.2896544504901758,-987.2119385360792,-7.675457207858813,COc1ccc(C=C2CCCN=C2c2cccnc2)c(OC)c1,train_full
112,28,0,data/moses_wfns/archive_0_0_0.tar,-1426.6545400088498,-116.14123815951268,1958.8541792366043,-5841.809574946852,2572.46669003562,1.4704736971340888,8.384999462448835,3.202050468687299,9.095253491973216,0.0123176219358322,0.0032075814965516,0.0028258868758259,-0.3161790874588071,0.0070432771613497,0.3232223646201568,-1419.7329515078204,-6.921588501029419,CC(=O)Nc1ccc(S(=O)(=O)c2ccc(NC(C)=O)cc2)cc1,train_full
113,28,1,data/moses_wfns/archive_0_0_0.tar,-1426.658084671095,-116.15008338422484,1960.5955564359533,-5845.353613991602,2574.274583377339,2.332944564912277,0.4378432919713189,10.31549439081861,10.585072584460072,0.0122605192924738,0.0032593518301321,0.0028479372134667,-0.3155738327126124,0.0050794152419724,0.3206532479545848,-1419.7329515078204,-6.925133163274495,CC(=O)Nc1ccc(S(=O)(=O)c2ccc(NC(C)=O)cc2)cc1,test_full_conformations
114,29,0,data/moses_wfns/archive_0_0_0.tar,-934.0843200713578,-88.09716493649734,1404.6208093321306,-4060.2564752390463,1809.667139363908,1.2808106971348503,-2.232394565598235,2.9129601785113226,3.8870809793468815,0.0448341808577353,0.0038405434667352,0.0037541387835923,-0.3028509334299054,0.004608547759007,0.3074594811889123,-927.9330297222632,-6.1512903490946655,CC(=O)Nc1ccc(OC(=O)c2ccccc2O)cc1,test_full_structures
115,29,1,data/moses_wfns/archive_0_0_0.tar,-934.0690452548666,-88.09521686389535,1399.3430486961108,-4050.636342356665,1805.3378029488008,-1.6646207195146356,3.0396391286464133,-0.2884195919503299,3.4775787601802124,0.0437693477831108,0.0037933132997028,0.0037051086472129,-0.2953413028038101,0.0150853789735149,0.310426681777325,-927.9330297222632,-6.136015532603551,CC(=O)Nc1ccc(OC(=O)c2ccccc2O)cc1,test_full_structures
116,30,0,data/moses_wfns/archive_0_0_0.tar,-879.993796065735,-83.47371215657195,1406.905222330688,-3991.8521532332607,1788.4483992214984,-0.4866238034102619,1.2181651371210394,-2.3697063319189926,2.708548896896557,0.0212019553793228,0.0086609564043752,0.0069641590733844,-0.2847035545008637,0.0150732156553443,0.299776770156208,-873.9131081482486,-6.08068791748633,CC(=O)Oc1cc(C)c(OC(C)=O)c2ccccc12,train_full
117,31,0,data/moses_wfns/archive_0_0_0.tar,-914.8546973960796,-83.75249069571097,1367.0802486641658,-3965.528221651237,1767.3638005170922,0.0482687512692473,-0.2005959027033521,-4.422490732516917,4.427300855795603,0.0210307673550207,0.0113203052460702,0.0085415825312913,-0.3308471875030527,0.0482500892278306,0.3790972767308833,-909.4671798011163,-5.387517594963242,CC(=O)Oc1cccc(OC(C)=O)c1OC(C)=O,train_full
118,32,0,data/moses_wfns/archive_0_0_0.tar,-911.410589999646,-88.48385714707958,1531.2728941755074,-4275.456811861107,1921.2822851653284,-1.1160358123259408,1.247653577777864,-2.775735593857031,3.241432317902192,0.0412147072967877,0.0041787933449478,0.0038871831091945,-0.2934495142410294,-0.0076014923090816,0.2858480219319478,-904.8708325247176,-6.539757474928592,CC1(C)C(=O)Nc2cc3nc(-c4ccncc4)[nH]c3cc21,train_full
119,33,0,data/moses_wfns/archive_0_0_0.tar,-840.2729095323602,-81.62402544450428,1358.9708349919406,-3837.4622222285225,1719.8663205414084,0.2292677528206743,0.1714565748234631,-0.0188528473722499,0.2869085035123164,0.0332438853567023,0.0056090061621516,0.0051799670163798,-0.3073593488616211,-0.0062051518625001,0.301154196999121,-834.0095681327247,-6.2633413996355785,CC(C)C=c1[nH]c(=O)c(=Cc2ccccc2)[nH]c1=O,test_full_scaffolds
120,33,1,data/moses_wfns/archive_0_0_0.tar,-840.2606647981135,-81.65906172411086,1376.008541143548,-3871.7707174849616,1737.1845687513855,0.1705144295270597,1.0460459964576094,0.5445518027345639,1.1915637050713634,0.0240225031824786,0.0065067009078974,0.0055315082478246,-0.3068430228793365,-0.0080793459161409,0.2987636769631956,-834.0095681327247,-6.251096665388786,CC(C)C=c1[nH]c(=O)c(=Cc2ccccc2)[nH]c1=O,test_full_scaffolds
121,33,2,data/moses_wfns/archive_0_0_0.tar,-840.2550709073025,-81.64917995988895,1382.4834275937187,-3884.9605844968864,1743.8953511453187,0.8131329509498932,0.5314130958795248,0.3079802897345072,1.0190372580321554,0.0271105086437557,0.0063038943097144,0.005508422449231,-0.3044460592322414,-0.007660427456816,0.2967856317754254,-834.0095681327247,-6.245502774577858,CC(C)C=c1[nH]c(=O)c(=Cc2ccccc2)[nH]c1=O,test_full_scaffolds
122,33,3,data/moses_wfns/archive_0_0_0.tar,-840.2498563469828,-81.6452879293337,1379.4205373460215,-3879.129131821225,1741.1278910842436,1.2793693283571026,-0.2324115158345858,0.0361343574403093,1.30081001027093,0.0436275164846638,0.0054477439660344,0.0051851420833327,-0.2982713179941246,-0.0110185170334161,0.2872528009607085,-834.0095681327247,-6.2402882142581575,CC(C)C=c1[nH]c(=O)c(=Cc2ccccc2)[nH]c1=O,test_full_scaffolds
123,34,0,data/moses_wfns/archive_0_0_0.tar,-1333.6932108243411,-106.6482380863494,1827.3534923208967,-5448.346968906448,2393.975670469865,-1.5395625477165926,4.383430047449216,2.6510072150763344,5.349070112982164,0.0106729092988312,0.0075978117486853,0.005014150592467,-0.3123688556105141,-0.0190719298238171,0.2932969257866969,-1327.17841016692,-6.514800657421347,Cc1nnc2n1-c1ccc(Cl)cc1C(c1ccccc1)=NC2,train_full
124,34,1,data/moses_wfns/archive_0_0_0.tar,-1333.6973975824153,-106.65537248586362,1828.577989471505,-5450.746901741434,2395.154098819088,-1.5721599035108933,4.90867707241804,1.4507775097749651,5.354582406346808,0.010624436209745,0.0076514413413961,0.0050314995993922,-0.3126234262367862,-0.0172269890637168,0.2953964371730694,-1327.17841016692,-6.518987415495303,Cc1nnc2n1-c1ccc(Cl)cc1C(c1ccccc1)=NC2,test_full_conformations
125,35,0,data/moses_wfns/archive_0_0_0.tar,-1290.1747612714094,-103.01022415464892,1614.0382380936687,-4970.570693799757,2169.3883482692136,-0.6773288829410515,9.966261762509,-1.282924863729159,10.071298036523874,0.0186253143861452,0.0045552877834163,0.004151188543702,-0.30060271873926,0.0138498203776912,0.3144525391169512,-1284.3769104391768,-5.797850832232598,NC(=O)Nc1ccc(S(=O)(=O)c2ccc(N)cc2)cc1,train_full
126,36,0,data/moses_wfns/archive_0_0_0.tar,-931.883424737844,-91.93469424646604,1712.1737629831557,-4660.137336396596,2108.048415720265,-0.2289599446956018,2.6164727415270206,3.2410742929483374,4.171680097495432,0.0106724068773026,0.0072501523901984,0.0047747024755839,-0.3296464384739616,0.0177186260497115,0.3473650645236731,-924.7271348928924,-7.156289844951516,CC(C)(C#N)c1cc(Cn2cncn2)cc(C(C)(C)C#N)c1,train_full
127,36,1,data/moses_wfns/archive_0_0_0.tar,-931.8583547103544,-91.89496812850898,1700.5443507677232,-4636.535843462963,2096.0618498507533,-5.97455181384326,3.953180736058364,3.30652994929742,7.890250161676849,0.0105255602225529,0.0067426432727978,0.0045150401288045,-0.3375820797119607,0.0076092486034416,0.3451913283154023,-924.7271348928924,-7.131219817462124,CC(C)(C#N)c1cc(Cn2cncn2)cc(C(C)(C)C#N)c1,train_full
128,36,2,data/moses_wfns/archive_0_0_0.tar,-931.9515010144618,-92.00514664752822,1721.8093101052682,-4679.348735187619,2117.627421916081,-3.943090226234657,-4.807133645883158,1.0638027404973684,6.307786512898078,0.0135472795735159,0.0063447784358024,0.004689060387817,-0.3399399885454121,0.020205353627998,0.3601453421734101,-924.7271348928924,-7.224366121569346,CC(C)(C#N)c1cc(Cn2cncn2)cc(C(C)(C)C#N)c1,train_full
129,36,3,data/moses_wfns/archive_0_0_0.tar,-931.8629912915914,-91.87841085928476,1722.2231774942825,-4680.570188628506,2118.396277332108,-6.600492494162733,0.884833162671832,1.8632505782878943,6.915282612355954,0.0099238084190456,0.0078677334660184,0.0049853438263544,-0.326035824919929,0.011655022244409,0.337690847164338,-924.7271348928924,-7.135856398698934,CC(C)(C#N)c1cc(Cn2cncn2)cc(C(C)(C)C#N)c1,train_full
130,36,4,data/moses_wfns/archive_0_0_0.tar,-931.9315674075134,-91.9082494533796,1699.9998230505837,-4635.661402290294,2095.6714259541254,-1.179312341487564,-0.1139171862161986,-7.990895486101758,8.078252620084479,0.0106679805672194,0.0065403645624262,0.0048364182247362,-0.3389093104792883,0.0129952366414188,0.351904547120707,-924.7271348928924,-7.204432514620976,CC(C)(C#N)c1cc(Cn2cncn2)cc(C(C)(C)C#N)c1,train_full
131,36,5,data/moses_wfns/archive_0_0_0.tar,-931.87120533274,-91.97021901829314,1719.8066233486472,-4675.363456626444,2115.690148255838,0.7648185150238094,-3.1161417586679705,-1.4157673822443415,3.5070905465448896,0.0128822110131663,0.006423393470404,0.0048635242146679,-0.325740333411521,0.0189103511332314,0.3446506845447524,-924.7271348928924,-7.14407043984761,CC(C)(C#N)c1cc(Cn2cncn2)cc(C(C)(C)C#N)c1,test_full_conformations
132,36,6,data/moses_wfns/archive_0_0_0.tar,-930.877277378228,-92.52525971250726,1714.6553968514345,-4662.706641568306,2109.7328376407445,-4.432101338389722,3.968659057130166,-3.478598873036897,6.891620063888522,0.0108535087649108,0.0065884230894625,0.0046871985030648,-0.3106375483594025,0.0014276844233507,0.3120652327827531,-924.7271348928924,-6.1501424853354365,CC(C)(C#N)c1cc(Cn2cncn2)cc(C(C)(C)C#N)c1,train_full
133,36,7,data/moses_wfns/archive_0_0_0.tar,-931.8626972756506,-91.84113027307944,1722.9938478765405,-4682.092565009126,2119.1112664823354,-3.681805229984755,1.8458049969254964,-9.183891881236594,10.06511579289884,0.0099572184639344,0.0073815252057601,0.0053758047990688,-0.3320558121961627,0.0181171107608052,0.3501729229569679,-924.7271348928924,-7.135562382758167,CC(C)(C#N)c1cc(Cn2cncn2)cc(C(C)(C)C#N)c1,train_full
134,37,0,data/moses_wfns/archive_0_0_0.tar,-913.9316305077896,-87.06312310999233,1477.826745584249,-4178.718726072981,1874.043740870211,-0.1050881368239859,3.703469192253435,-2.816523766530542,4.653980414860256,0.0165532023412008,0.0074376815108893,0.0054297615054372,-0.2815766779868213,-0.0262304265600711,0.2553462514267502,-907.9812597145012,-5.9503707932885845,CNC(=O)Oc1ccccc1C(=O)Nc1ccccc1,test_full_structures
135,38,0,data/moses_wfns/archive_0_0_0.tar,-1009.702574280557,-97.74616105022469,1802.7533952276065,-4951.42591838024,2236.743284811516,-1.7984790797776604,3.745511118583437,0.4558836193600799,4.1798577026294685,0.0081250912137808,0.0072015114746932,0.004166643510892,-0.2876538869246522,0.00425211026155,0.2919059971862022,-1002.4287742508888,-7.273800029668109,COc1ccc(-c2nnc(C)nc2-c2ccc(OC)cc2)cc1,test_full_scaffolds
136,38,1,data/moses_wfns/archive_0_0_0.tar,-1009.7029033807192,-97.74604562637025,1794.3594140219534,-4934.510515326536,2228.2210092570226,-2.0277703165242227,3.437584827019149,0.4004029597842853,4.01113006891238,0.0079116064806645,0.0070862961078636,0.0040670662168535,-0.2927111969941531,0.0007251489769271,0.2934363459710802,-1002.4287742508888,-7.274129129830271,COc1ccc(-c2nnc(C)nc2-c2ccc(OC)cc2)cc1,test_full_scaffolds
137,39,0,data/moses_wfns/archive_0_0_0.tar,-1295.4581128222792,-99.26357741483363,1517.3580856274043,-4787.459103220823,2073.9258622104835,-2.6072869915101284,-0.1061585290694566,-1.951684498992109,3.258571385285,0.0199961046375588,0.0081777825044323,0.0065200265244916,-0.2855949344675013,0.0307664130170108,0.316361347484512,-1290.3148247574895,-5.143288064789658,Nc1ncnc2c1ncn2Cc1c(F)cccc1Cl,"train_large,train_full"
138,39,1,data/moses_wfns/archive_0_0_0.tar,-1295.4261461312694,-99.25615231677584,1526.650307440157,-4805.696992117881,2082.895915910392,-3.943341762112501,1.3876772078898711,-1.0580436078130675,4.312197648780915,0.022580344408213,0.0077270890145581,0.0068280267357535,-0.309409728022386,0.0211986668884561,0.3306083949108421,-1290.3148247574895,-5.1113213737799015,Nc1ncnc2c1ncn2Cc1c(F)cccc1Cl,"train_large,train_full"
139,39,2,data/moses_wfns/archive_0_0_0.tar,-1295.4544563151244,-99.21686087680509,1512.0975165053212,-4776.934223666978,2068.6183832240363,-3.142131967823493,0.2521523362903732,-1.994358246210436,3.730152666868019,0.0201933995466729,0.0080399166939673,0.0064530748229093,-0.2920123429255639,0.0261064311446851,0.3181187740702489,-1290.3148247574895,-5.139631557634857,Nc1ncnc2c1ncn2Cc1c(F)cccc1Cl,"test_large_conformations,test_full_conformations"