,MOSES id,CONFORMER id,archive name,DFT TOTAL ENERGY,DFT XC ENERGY,DFT NUCLEAR REPULSION ENERGY,DFT ONE-ELECTRON ENERGY,DFT TWO-ELECTRON ENERGY,DFT DIPOLE X,DFT DIPOLE Y,DFT DIPOLE Z,DFT TOTAL DIPOLE,DFT ROT CONSTANT A,DFT ROT CONSTANT B,DFT ROT CONSTANT C,DFT HOMO,DFT LUMO,DFT HOMO-LUMO GAP,DFT ATOMIC ENERGY,DFT FORMATION ENERGY,SMILES,SPLITS
373,115,0,data/moses_wfns/archive_0_0_1.tar,-922.9006952833035,-85.18388113114744,1356.3389441976192,-3953.3367664795614,1759.3003147569834,-0.7803277486238647,-1.5400899292626256,0.8214249697127305,1.911943348103209,0.0321357765817203,0.0066950811389668,0.0059634049698199,-0.3163564906966555,0.0033137830757644,0.3196702737724199,-917.4487701495792,-5.451925133724558,O=C1c2cccnc2CN1Cc1c(F)cccc1F,test_full_conformations
374,115,1,data/moses_wfns/archive_0_0_1.tar,-922.9376103558136,-85.23666402256637,1377.5858790869356,-3995.569093478974,1780.3018639074771,-1.0659961131032272,1.4132036951033229,-1.7929131211669214,2.519529689655866,0.0279566446284778,0.007169749515326,0.006745042406871,-0.3239036626831358,0.0102236500429507,0.3341273127260865,-917.4487701495792,-5.488840206234499,O=C1c2cccnc2CN1Cc1c(F)cccc1F,train_full
375,115,2,data/moses_wfns/archive_0_0_1.tar,-922.932446159608,-85.24565572551005,1380.198329314082,-4000.943757205701,1783.0785421225994,-0.7316200759341194,-1.7226874408524322,0.7864245346383206,2.030119085931081,0.0261263177971722,0.0077568067093039,0.0069141340361301,-0.3202263720486882,0.0104852827074711,0.3307116547561593,-917.4487701495792,-5.48367601002883,O=C1c2cccnc2CN1Cc1c(F)cccc1F,train_full
376,116,0,data/moses_wfns/archive_0_0_1.tar,-839.0371501117195,-81.09107856024825,1320.400548078787,-3759.6253547915912,1681.3001252693532,0.9193165781527326,-0.4279558714306166,-1.961507801866144,2.2081218389255923,0.0279560969411937,0.0055218767375995,0.0054103407053651,-0.2891689571799597,0.013406271399715,0.3025752285796747,-833.0045816159924,-6.032568495727105,COc1ccc(CN2Cc3ncccc3C2=O)cc1,train_full
377,116,1,data/moses_wfns/archive_0_0_1.tar,-839.068552409941,-81.02936313530476,1317.1779576714416,-3753.2443991218897,1678.0492743221691,0.3921731552196545,0.6966826651128779,2.1824096268259123,2.3242371434098845,0.0356468665791767,0.005206455260742,0.0050637807689123,-0.3009480218106848,0.0054812151303477,0.3064292369410325,-833.0045816159924,-6.06397079394867,COc1ccc(CN2Cc3ncccc3C2=O)cc1,train_full
378,116,2,data/moses_wfns/archive_0_0_1.tar,-839.07699758017,-81.05687661156482,1328.019867278692,-3775.014148219964,1688.996421151989,0.399820301699205,1.8433438199450207,0.7495060156491689,2.0296630212118063,0.0329288290278473,0.0055319639298908,0.0053265103651032,-0.2996286753693462,0.0110570137937511,0.3106856891630973,-833.0045816159924,-6.072415964177594,COc1ccc(CN2Cc3ncccc3C2=O)cc1,test_full_conformations
379,117,0,data/moses_wfns/archive_0_0_1.tar,-1184.1229576995554,-91.28328812693977,1284.5885722019852,-4167.309351901571,1789.9003518103832,2.4712994193474978,-0.786800412518975,-1.8537769181764887,3.187924806448739,0.0340704390261101,0.0049951188902138,0.0048905969011819,-0.3214981170259365,0.0033190511157022,0.3248171681416387,-1178.7109740565174,-5.411983643037956,O=C1c2cccnc2CN1Cc1ccc(Cl)cc1,test_full_structures
380,117,1,data/moses_wfns/archive_0_0_1.tar,-1184.1277914899497,-91.31831800486812,1293.2302538001572,-4184.499644661894,1798.4795439256038,2.203195490890235,-0.9891278585243364,1.9530803156680367,3.105956698191068,0.0315516836250613,0.0051501618950962,0.0049661433136165,-0.3229834543620984,0.0004568356824413,0.3234402900445397,-1178.7109740565174,-5.416817433432016,O=C1c2cccnc2CN1Cc1ccc(Cl)cc1,test_full_structures
381,117,2,data/moses_wfns/archive_0_0_1.tar,-1184.13644977996,-91.30722302542544,1304.1257312405962,-4206.377329023486,1809.442416496886,1.5858341146038533,1.7712529070890044,0.8839787194430976,2.536459161181369,0.027044722950368,0.0056810807194547,0.0055467029022193,-0.3181115011963695,0.0071164440626632,0.3252279452590327,-1178.7109740565174,-5.42547572344256,O=C1c2cccnc2CN1Cc1ccc(Cl)cc1,test_full_structures
382,117,3,data/moses_wfns/archive_0_0_1.tar,-1184.1279366177755,-91.2868526169945,1288.8673182142886,-4175.871922820795,1794.1829092864884,2.0074966182449594,-1.4228562801991198,-1.3923099004376356,2.8272052499285727,0.0291467310007269,0.0052182699813729,0.0051232982861096,-0.3224626169236264,0.0042118569027852,0.3266744738264115,-1178.7109740565174,-5.41696256125806,O=C1c2cccnc2CN1Cc1ccc(Cl)cc1,test_full_structures
383,118,0,data/moses_wfns/archive_0_0_1.tar,-1184.1260368709634,-91.28832446642372,1312.7578372548871,-4223.8039769165525,1818.2283611249816,-1.5154931365318949,-1.770667882610775,-2.781999813984528,3.6292571088853087,0.024333841563549,0.0064196162926953,0.0058258183257265,-0.3238681782692006,0.0038949548744783,0.3277631331436789,-1178.7109740565174,-5.415062814445946,O=C1c2cccnc2CN1Cc1cccc(Cl)c1,train_full
384,118,1,data/moses_wfns/archive_0_0_1.tar,-1184.131547687246,-91.29703554833252,1324.7737973539788,-4247.677917682486,1830.089872105805,-0.0077446514555979,1.9803300002037232,1.6487795781529582,2.5768665054028883,0.0218138921771706,0.0074225380357227,0.0064286854141758,-0.3296768591053256,0.0061713085293135,0.3358481676346391,-1178.7109740565174,-5.420573630728541,O=C1c2cccnc2CN1Cc1cccc(Cl)c1,train_full
385,118,2,data/moses_wfns/archive_0_0_1.tar,-1184.131710212324,-91.28777267201475,1310.0321287783777,-4218.218803204833,1815.36279057134,-1.4068405452963364,0.2862170777754345,-0.4547687479401253,1.5059665167602605,0.0243332173591896,0.0064970254417787,0.0057532494971681,-0.3231034633698014,0.0040884345026218,0.3271918978724232,-1178.7109740565174,-5.42073615580648,O=C1c2cccnc2CN1Cc1cccc(Cl)c1,train_full
386,118,3,data/moses_wfns/archive_0_0_1.tar,-1184.1281379092036,-91.28245432509692,1296.583769730145,-4191.2509222714025,1801.841362231878,-2.230167039191228,-1.329358484384536,1.7196746448178604,3.114180451857206,0.0415307144684239,0.0050411335374403,0.0049610376507806,-0.3271971803393249,0.0018441972853837,0.3290413776247086,-1178.7109740565174,-5.417163852686144,O=C1c2cccnc2CN1Cc1cccc(Cl)c1,test_full_conformations
387,119,0,data/moses_wfns/archive_0_0_1.tar,-1184.0864467943356,-91.2400174851736,1326.2854290647103,-4251.297616863395,1832.1848693291608,-0.2722014760161211,2.556779029244024,-0.610792423229866,2.642778846631398,0.029226161473965,0.0066990984520385,0.0055970760975215,-0.3224554659082216,0.0008248626809761,0.3232803285891977,-1178.7109740565174,-5.3754727378182,O=C1c2cccnc2CN1Cc1ccccc1Cl,test_full_structures
388,119,1,data/moses_wfns/archive_0_0_1.tar,-1184.1029335072917,-91.23887135183332,1338.9933452927862,-4276.268859071697,1844.4313814110888,0.2383166267863027,-0.0771474950253297,1.0900280813854064,1.118439881620928,0.0215377818907329,0.0080011137788888,0.0069197351380574,-0.3204248199278015,0.0023140511736597,0.3227388711014611,-1178.7109740565174,-5.391959450774039,O=C1c2cccnc2CN1Cc1ccccc1Cl,test_full_structures
389,119,2,data/moses_wfns/archive_0_0_1.tar,-1184.0933151641725,-91.23597634560926,1328.149319955025,-4254.425742445703,1833.4387255167928,1.059092512964838,0.8476062627209089,1.6915301981766864,2.168268373372065,0.025059116413485,0.0071042752872577,0.0062892104900365,-0.3161780773356043,0.0140330063713156,0.3302110837069199,-1178.7109740565174,-5.382341107654838,O=C1c2cccnc2CN1Cc1ccccc1Cl,test_full_structures
390,120,0,data/moses_wfns/archive_0_0_1.tar,-1061.363853557255,-96.64074110617231,1640.426771439309,-4710.41119143666,2105.2847125966737,1.5482004381961652,-2.9619725426726142,-1.143922672807271,3.532529550016504,0.0232900477796328,0.0051236357889968,0.0048052709169137,-0.3295238049498784,0.0035917901932015,0.3331155951430798,-1055.3638322544336,-6.000021302821324,O=C1c2cccnc2CN1Cc1ccccc1C(F)(F)F,train_full
391,120,1,data/moses_wfns/archive_0_0_1.tar,-1061.3315048858617,-96.6272662555582,1654.233011968219,-4738.224051103291,2119.310282290741,-0.0177175149469581,-0.8358687022798635,0.9766879051629718,1.2856553433477236,0.0209685889587961,0.0060807431021693,0.0049894896362723,-0.3235733587189916,0.010085366817769,0.3336587255367606,-1055.3638322544336,-5.967672631428059,O=C1c2cccnc2CN1Cc1ccccc1C(F)(F)F,test_full_conformations
392,120,2,data/moses_wfns/archive_0_0_1.tar,-1061.323475960594,-96.67586247273589,1708.4020381625194,-4846.90523622573,2173.879925399096,-0.8963027702243653,-2.3264256171779927,-2.7494039319072767,3.7114467245214593,0.0212485759492079,0.0067868795547791,0.0061254015428694,-0.3198186122797316,0.0089892166176048,0.3288078288973364,-1055.3638322544336,-5.95964370616025,O=C1c2cccnc2CN1Cc1ccccc1C(F)(F)F,train_full
393,121,0,data/moses_wfns/archive_0_0_1.tar,-1440.9982182879958,-118.61491476057392,2083.3812062921925,-6106.786685349316,2701.0509385285204,4.759817753062894,-1.0223212988670551,5.250013459236367,7.159863630171522,0.0194030329035706,0.0027243217406994,0.0024572708252667,-0.2906864975831196,-0.0181433461978436,0.272543151385276,-1433.8493330663114,-7.148885221684395,CCOc1ccnc(N2CCN(C(=O)c3sccc3C#N)CC2)n1,train_full
394,121,1,data/moses_wfns/archive_0_0_1.tar,-1440.980989831189,-118.66403041357832,2064.4963941175,-6068.763528159432,2681.977998095324,5.694131616299226,-0.0628482684373816,5.487408072156593,7.908143405310335,0.017074661650781,0.0025673064979286,0.0024907482267351,-0.2946724207186867,-0.0160897755122434,0.2785826452064433,-1433.8493330663114,-7.131656764877562,CCOc1ccnc(N2CCN(C(=O)c3sccc3C#N)CC2)n1,train_full
395,121,2,data/moses_wfns/archive_0_0_1.tar,-1440.9486527587,-118.6373172095471,2060.887290998392,-6062.112297710629,2678.9421304776906,0.6517616693952938,1.3344666608291793,0.8084939117598907,1.6909337503019832,0.0161171049723136,0.0027029100819094,0.0024782407138482,-0.2862216183424353,-0.0229915208377984,0.2632300975046369,-1433.8493330663114,-7.09931969238869,CCOc1ccnc(N2CCN(C(=O)c3sccc3C#N)CC2)n1,train_full
396,121,3,data/moses_wfns/archive_0_0_1.tar,-1441.015618021548,-118.61794947418116,2068.47353278546,-6076.766781877695,2685.922844897588,4.812953445374893,6.169996728124574,-1.7725034072759058,8.023412542130606,0.0159065310114026,0.0028158060906852,0.0024185508539427,-0.2895610767857884,-0.0174522978582932,0.2721087789274952,-1433.8493330663114,-7.166284955236506,CCOc1ccnc(N2CCN(C(=O)c3sccc3C#N)CC2)n1,test_full_conformations
397,121,4,data/moses_wfns/archive_0_0_1.tar,-1441.0447425832265,-118.61056981758,2066.401538603381,-6072.732508134164,2683.924520617929,2.976741129625589,-2.7911178415412894,4.5987128925205685,6.1481287255562265,0.0168591664561516,0.0027008884279902,0.0024128125231619,-0.2941177105492276,-0.0164803082379861,0.2776374023112415,-1433.8493330663114,-7.195409516914879,CCOc1ccnc(N2CCN(C(=O)c3sccc3C#N)CC2)n1,train_full
398,121,5,data/moses_wfns/archive_0_0_1.tar,-1441.0382746469693,-118.61602730280534,2104.977815481748,-6149.853736340145,2722.4831522103223,3.895473813641341,4.859346724857911,4.444554454323917,7.651276437471286,0.0166960679545917,0.0030972740775364,0.0026714695855239,-0.2964264535493526,-0.0232469752037245,0.2731794783456281,-1433.8493330663114,-7.188941580657911,CCOc1ccnc(N2CCN(C(=O)c3sccc3C#N)CC2)n1,train_full
399,121,6,data/moses_wfns/archive_0_0_1.tar,-1440.995853353969,-118.5011439071357,2097.695158661334,-6135.792634702944,2715.632347648557,-2.43556589799658,2.001981087370285,-1.6491596193167133,3.5580383594976936,0.0136011759959408,0.0033422312853772,0.0027804764587427,-0.2910540696164286,-0.0318596927272442,0.2591943768891844,-1433.8493330663114,-7.146520287657722,CCOc1ccnc(N2CCN(C(=O)c3sccc3C#N)CC2)n1,train_full
400,121,7,data/moses_wfns/archive_0_0_1.tar,-1441.0083350221328,-118.58580761433588,2110.0870008051256,-6160.712668286828,2728.2325153779584,-1.403354505680089,0.5012665200963857,2.9735992332115235,3.326103484941247,0.0122414410153446,0.0035655165121666,0.0030117852605315,-0.2886638667181022,-0.0249420690050098,0.2637217977130924,-1433.8493330663114,-7.159001955821395,CCOc1ccnc(N2CCN(C(=O)c3sccc3C#N)CC2)n1,train_full
401,121,8,data/moses_wfns/archive_0_0_1.tar,-1440.9796644326668,-118.56208877024454,2100.133901457724,-6141.124552957609,2718.602832010704,0.1484010208396166,-0.2959355256961874,0.1133228726328444,0.3499182359024447,0.0157695934767971,0.0030483193018459,0.0028456647782446,-0.2918621552902656,-0.0243988672014608,0.2674632880888048,-1433.8493330663114,-7.130331366355449,CCOc1ccnc(N2CCN(C(=O)c3sccc3C#N)CC2)n1,train_full
402,121,9,data/moses_wfns/archive_0_0_1.tar,-1440.6564262779814,-118.42323815982346,2081.792736375003,-6103.797460886874,2699.800835095368,-0.6263919453202846,5.763657800673086,3.7617525515363206,6.911070855620847,0.0206514878234164,0.0027033853870288,0.0025523043997457,-0.2727110146780371,-0.035663078791952,0.2370479358860851,-1433.8493330663114,-6.807093211670008,CCOc1ccnc(N2CCN(C(=O)c3sccc3C#N)CC2)n1,train_full
403,121,10,data/moses_wfns/archive_0_0_1.tar,-1440.5237633837414,-118.48855148609896,2042.4777748974388,-6024.450930414769,2659.9652151987034,5.651856078599155,-6.8289414069503485,-1.1975374636228098,8.944943479393226,0.0189348526116853,0.0024128764186934,0.0023691879845601,-0.2805647387182888,-0.0599310873708385,0.2206336513474503,-1433.8493330663114,-6.674430317430051,CCOc1ccnc(N2CCN(C(=O)c3sccc3C#N)CC2)n1,train_full
404,121,11,data/moses_wfns/archive_0_0_1.tar,-1441.0296516002368,-118.58345184732494,2114.655291264895,-6169.652636525467,2732.579271233518,3.2642073302720327,2.627443537630199,-6.838320391223295,8.020045811057233,0.0125263310913462,0.003340864993137,0.0031440261368037,-0.2971543021803939,-0.0182577059275176,0.2788965962528763,-1433.8493330663114,-7.180318533925401,CCOc1ccnc(N2CCN(C(=O)c3sccc3C#N)CC2)n1,train_full
405,121,12,data/moses_wfns/archive_0_0_1.tar,-1440.9930478658912,-118.61196243439448,2208.514010011156,-6357.847472984867,2826.9847150100586,-1.7476306741204066,2.058211706557779,0.0287355738525796,2.700235940680493,0.0105499771255045,0.0048178473960596,0.0042777574596727,-0.2898956686803605,-0.0251869303010781,0.2647087383792824,-1433.8493330663114,-7.143714799579811,CCOc1ccnc(N2CCN(C(=O)c3sccc3C#N)CC2)n1,train_full
406,121,13,data/moses_wfns/archive_0_0_1.tar,-1440.9579716786982,-118.63497504177208,2139.9653183816927,-6220.4006931450485,2758.141941688905,1.440248385114653,2.77902259807702,0.6814757702508674,3.203387462809819,0.0098141462707503,0.0041788029365347,0.0036103972148932,-0.2818471831302429,-0.0218179659315074,0.2600292171987354,-1433.8493330663114,-7.108638612386812,CCOc1ccnc(N2CCN(C(=O)c3sccc3C#N)CC2)n1,train_full
407,121,14,data/moses_wfns/archive_0_0_1.tar,-1441.0056000537184,-118.6056747668381,2087.6803287215207,-6115.628395590575,2705.5786451333747,-2.3733935112347,0.6561328893885837,0.2694386915651137,2.4771161329700933,0.018357948523305,0.0028288528120695,0.0025948820789366,-0.2944214536420956,-0.0293771121570436,0.265044341485052,-1433.8493330663114,-7.15626698740698,CCOc1ccnc(N2CCN(C(=O)c3sccc3C#N)CC2)n1,train_full
408,121,15,data/moses_wfns/archive_0_0_1.tar,-1441.0265964343391,-118.6124109739574,2144.782581464793,-6230.013591652651,2762.8457266729665,3.392115142729005,6.026175671788305,-4.826658059157719,8.433140956299544,0.0108812046050249,0.0038011556145483,0.0036002918978271,-0.2913081417442646,-0.0104296198513581,0.2808785218929065,-1433.8493330663114,-7.177263368027752,CCOc1ccnc(N2CCN(C(=O)c3sccc3C#N)CC2)n1,train_full
409,121,16,data/moses_wfns/archive_0_0_1.tar,-1440.8990575141108,-118.5565435143314,2132.843951506418,-6205.5105620546265,2750.352542858845,-1.570399320873107,-0.1891389176828179,-7.244428758818236,7.41509781451153,0.0095922537347343,0.0042515661763761,0.0035961922202957,-0.2825884585730868,-0.0231832828266061,0.2594051757464807,-1433.8493330663114,-7.049724447799463,CCOc1ccnc(N2CCN(C(=O)c3sccc3C#N)CC2)n1,train_full
410,121,17,data/moses_wfns/archive_0_0_1.tar,-1440.9331808260963,-118.53161176419113,2146.992606644841,-6234.434480092928,2765.070698412431,-0.1067395743483396,-1.014588685890481,0.82696690082076,1.3132622713388709,0.0119987711026932,0.0036641054914425,0.0035979850262904,-0.2946472047325891,-0.0363163870282006,0.2583308177043885,-1433.8493330663114,-7.083847759785158,CCOc1ccnc(N2CCN(C(=O)c3sccc3C#N)CC2)n1,train_full
411,122,0,data/moses_wfns/archive_0_0_1.tar,-915.9465969889324,-91.12570383122645,1717.1241115335297,-4649.60308776988,2107.692826473889,2.7843447919126785,-0.1233967686863365,3.8509381097359263,4.753685623575669,0.0247607128339328,0.0046591837304054,0.004073076897718,-0.2906403309780047,-0.0099135143475717,0.280726816630433,-908.5053126613504,-7.441284327581911,CCc1nc(C#N)c(N2CCc3ccccc3CC2)nc1C,train_full
412,122,1,data/moses_wfns/archive_0_0_1.tar,-915.942138403348,-91.13012673363578,1733.355556335282,-4681.923989335072,2123.7907862362404,1.534833878291732,0.8988163495618748,4.373409601444084,4.721260150234794,0.017939437797014,0.0053475401785926,0.0047016284732822,-0.2901253155304919,-0.0110369616446858,0.2790883538858061,-908.5053126613504,-7.436825741997495,CCc1nc(C#N)c(N2CCc3ccccc3CC2)nc1C,train_full
413,122,2,data/moses_wfns/archive_0_0_1.tar,-915.9571878000484,-91.184116433964,1716.8224426331335,-4648.904239845824,2107.342411107863,-1.3625187309784492,4.583949193852643,0.3016870500954379,4.7916659504064665,0.0240715178651839,0.0046519487599514,0.0041419292785,-0.2888928942545881,-0.0018656959283246,0.2870271983262635,-908.5053126613504,-7.451875138697915,CCc1nc(C#N)c(N2CCc3ccccc3CC2)nc1C,train_full
414,122,3,data/moses_wfns/archive_0_0_1.tar,-915.944267890044,-91.1724120231452,1761.8926054583344,-4739.432589139751,2152.804581366319,4.292652951661505,-1.7078486110277544,-1.4542893547811926,4.843405183239119,0.0237940871600474,0.0053772894993634,0.0048984815904949,-0.2910067996570272,-0.006748469685338,0.2842583299716892,-908.5053126613504,-7.438955228693658,CCc1nc(C#N)c(N2CCc3ccccc3CC2)nc1C,test_full_conformations
415,122,4,data/moses_wfns/archive_0_0_1.tar,-915.8761179920084,-90.99935877847302,1799.546729169515,-4814.627391573423,2190.2416527686046,0.8671596381723434,3.8869439077081216,-2.933527336639987,4.946299769985496,0.0184655411662195,0.0064084983524034,0.0061350919885561,-0.2876513785025583,-0.0326196452744861,0.2550317332280721,-908.5053126613504,-7.370805330657959,CCc1nc(C#N)c(N2CCc3ccccc3CC2)nc1C,train_full
416,123,0,data/moses_wfns/archive_0_0_1.tar,-1160.7516179974,-93.3693156711504,1384.6809066689832,-4332.757576185186,1880.71221911942,1.1172061530544186,-0.2916480808994658,-0.2488998790077622,1.1811686337204663,0.0308563505628509,0.0048967192783488,0.0042337578819829,-0.2941462732818054,-0.0040757991921938,0.2900704740896116,-1154.994844836357,-5.756773161042929,COc1cccc(-c2csc(-c3cccnc3)n2)c1,train_full
417,123,1,data/moses_wfns/archive_0_0_1.tar,-1160.7517366104128,-93.37812269386636,1384.7883304156376,-4333.24022280029,1881.096080899496,0.5072546496810774,-1.595505852321474,-1.948735565184477,2.5691470388885898,0.0219639204030839,0.0053928582405773,0.004337220435082,-0.2947829461508807,-0.0021375006286791,0.2926454455222015,-1154.994844836357,-5.756891774055703,COc1cccc(-c2csc(-c3cccnc3)n2)c1,test_full_conformations
418,123,2,data/moses_wfns/archive_0_0_1.tar,-1160.7486912700772,-93.40316232789054,1387.5976876920545,-4338.740375365408,1883.815015193789,2.9462037943698443,-0.5162669646191991,-0.3868095396431902,3.0160023204028485,0.0214097873229792,0.0054641729019121,0.0043640950855439,-0.2955166509910187,-0.0011956008630657,0.294321050127953,-1154.994844836357,-5.753846433720128,COc1cccc(-c2csc(-c3cccnc3)n2)c1,train_full
419,124,0,data/moses_wfns/archive_0_0_1.tar,-803.2263578557739,-79.23495670339564,1304.044943546514,-3676.095557752783,1648.083751617673,-1.983392282966436,-2.468000886483824,-1.164340256908283,3.373508790217242,0.0430287277125636,0.0047040546523084,0.0046009340451772,-0.320478683850557,-0.0033343804623431,0.3171443033882139,-796.8309893766884,-6.395368479085505,O=C(NC1CCc2ccccc2C1)c1ccncc1,test_full_conformations