,MOSES id,CONFORMER id,archive name,DFT TOTAL ENERGY,DFT XC ENERGY,DFT NUCLEAR REPULSION ENERGY,DFT ONE-ELECTRON ENERGY,DFT TWO-ELECTRON ENERGY,DFT DIPOLE X,DFT DIPOLE Y,DFT DIPOLE Z,DFT TOTAL DIPOLE,DFT ROT CONSTANT A,DFT ROT CONSTANT B,DFT ROT CONSTANT C,DFT HOMO,DFT LUMO,DFT HOMO-LUMO GAP,DFT ATOMIC ENERGY,DFT FORMATION ENERGY,SMILES,SPLITS
652,211,0,data/moses_wfns/archive_0_0_2.tar,-840.5035089007694,-80.3699427775796,1295.91226247729,-3716.5492465428815,1660.5264755095086,1.4254653647445656,4.41797014369972,-0.8112049586671191,4.712585827512811,0.021040445626292,0.0066002204098532,0.0056207415895402,-0.3187033315801073,0.0642846706249487,0.3829880022050559,-834.3950340630206,-6.108474837748759,COCC(NC(C)=O)C(=O)NCc1ccccc1,train_full
653,211,1,data/moses_wfns/archive_0_0_2.tar,-840.5039075567629,-80.44687658507688,1331.4081409674536,-3787.831653724224,1696.3909973480254,-0.2972755478725625,3.5999771365255224,-3.691171920507645,5.164586942013226,0.0235768125843498,0.0070361528570037,0.0061191429064228,-0.3111766640600893,0.0632069981015363,0.3743836621616256,-834.3950340630206,-6.108873493742294,COCC(NC(C)=O)C(=O)NCc1ccccc1,test_full_conformations
654,211,2,data/moses_wfns/archive_0_0_2.tar,-840.4294730649335,-80.4548458295472,1285.964498500523,-3696.6408455820906,1650.7238629935714,0.6126568360317719,-2.2194052616822804,2.9815597568997974,3.767068714303448,0.0217383590512377,0.0060293974755068,0.0049387061041626,-0.2921970398008245,0.053442600563455,0.3456396403642795,-834.3950340630206,-6.034439001912915,COCC(NC(C)=O)C(=O)NCc1ccccc1,train_full
655,211,3,data/moses_wfns/archive_0_0_2.tar,-840.5151950035806,-80.42452885778958,1315.257807613362,-3755.426027303773,1680.100843392808,-0.1973376394410187,3.6157418500945786,-2.1925857985568267,4.233197816603731,0.0211801576526649,0.0072005348768579,0.0061654216895779,-0.3173491679797542,0.0658909791013385,0.3832401470810927,-834.3950340630206,-6.120160940560027,COCC(NC(C)=O)C(=O)NCc1ccccc1,train_full
656,212,0,data/moses_wfns/archive_0_0_2.tar,-1461.2734013202316,-117.61946983901473,2003.9933715895968,-5981.118841718388,2633.49413394672,-2.4956451159322848,2.616457036217802,-2.5692671118102286,4.435676437577474,0.021794047733391,0.0032252911452487,0.0031520757814829,-0.2952561025238986,-0.0297584713149788,0.2654976312089198,-1454.9015572303924,-6.371844089839215,O=C(CN1C(=O)c2ccccc2S1(=O)=O)Nc1ccc(O)cc1,train_full
657,212,1,data/moses_wfns/archive_0_0_2.tar,-1461.2739443162122,-117.56823104302902,2003.043102688977,-5979.359093420777,2632.632856926098,-2.5294807551782323,1.7697699323280778,0.5259314652551088,3.131607001259091,0.0212075056159669,0.0032366311021453,0.0031860313197825,-0.2867639104609487,-0.03197174205998,0.2547921684009687,-1454.9015572303924,-6.37238708581981,O=C(CN1C(=O)c2ccccc2S1(=O)=O)Nc1ccc(O)cc1,test_full_conformations
658,212,2,data/moses_wfns/archive_0_0_2.tar,-1461.2769927386755,-117.5945355954171,2011.4099730194816,-5996.275711401484,2641.205993090948,-1.825760629679163,-2.28703615838779,-0.5158362451412384,2.9715355118963407,0.0213353773910649,0.0033163234661849,0.0032321874326175,-0.2820406534804508,-0.0313342944087086,0.2507063590717422,-1454.9015572303924,-6.37543550828309,O=C(CN1C(=O)c2ccccc2S1(=O)=O)Nc1ccc(O)cc1,train_full
659,212,3,data/moses_wfns/archive_0_0_2.tar,-1461.2811595844803,-117.62215454998898,2053.741799130591,-6079.546317256654,2682.1695441352726,-5.061318219707842,3.2061166882604955,4.553371328754283,7.52524529815544,0.0144442552987346,0.004310393324752,0.0039279206020512,-0.2926720435314516,-0.0483166303492594,0.2443554131821922,-1454.9015572303924,-6.379602354088092,O=C(CN1C(=O)c2ccccc2S1(=O)=O)Nc1ccc(O)cc1,train_full
660,213,0,data/moses_wfns/archive_0_0_2.tar,-1558.833963572468,-112.19054571069778,1642.7913748387618,-5398.130396029154,2308.7150378686524,-0.671718566698007,0.0617915557368373,-1.4113096479685856,1.5642311055775668,0.0225768600343395,0.0040015988200641,0.0034636940764774,-0.278557128987556,-0.0248144701488685,0.2537426588386875,-1552.966772671964,-5.867190900504056,Cc1ccc(Sc2cncc3sc(C(N)=O)cc23)cc1,train_full
661,213,1,data/moses_wfns/archive_0_0_2.tar,-1558.836121744312,-112.15941825785104,1673.589779581447,-5459.768569758901,2339.5220121885177,-1.6271098642338295,-1.768687790432789,2.072282018779009,3.173341421225875,0.0134839953859066,0.0053977539252159,0.0044612099633757,-0.2897337615386364,-0.0364089797543893,0.2533247817842471,-1552.966772671964,-5.869349072348086,Cc1ccc(Sc2cncc3sc(C(N)=O)cc23)cc1,test_full_conformations
662,213,2,data/moses_wfns/archive_0_0_2.tar,-1558.8383867664902,-112.1518576961597,1680.800312975722,-5474.030934179255,2346.5645210310886,3.541952302660825,2.3184165295766093,2.0289812931558595,4.694384561038305,0.013445261276836,0.0055507531484462,0.0044549583553445,-0.3163845154914187,-0.0317864527872765,0.2845980627041422,-1552.966772671964,-5.871614094526194,Cc1ccc(Sc2cncc3sc(C(N)=O)cc23)cc1,train_full
663,214,0,data/moses_wfns/archive_0_0_2.tar,-1256.5259733830155,-103.08963425933712,1686.6420403754114,-5064.549605125912,2224.496150584045,0.7590859848066759,-3.528455120561445,-1.0424955190603098,3.756727828497432,0.0294343233074408,0.003557535650738,0.0031904965519408,-0.2642284705081484,0.0250901703542033,0.2893186408623517,-1249.8278253030408,-6.698148079974772,Cc1c(O)c(C)c2sc(NCc3cccnc3)nc2c1C,test_full_conformations
664,214,1,data/moses_wfns/archive_0_0_2.tar,-1256.5414378696755,-103.0890114794966,1769.316018387461,-5230.553044980917,2307.812534974525,-1.265042972156832,-0.960344263306963,-2.271277144509713,2.7715148732493176,0.0167196865309603,0.0058103950841304,0.0047331486615128,-0.2673811817427287,0.0465191144222782,0.3139002961650068,-1249.8278253030408,-6.713612566634993,Cc1c(O)c(C)c2sc(NCc3cccnc3)nc2c1C,train_full
665,214,2,data/moses_wfns/archive_0_0_2.tar,-1256.5358976983723,-103.08022680896406,1772.9134022762487,-5237.882353680936,2311.540027093557,0.45264531846321,2.7778770414612186,1.0504864533527074,3.0041655131636045,0.0191225333547087,0.0054624070799699,0.0047651095354015,-0.2619181488514421,0.0336684463492758,0.2955865952007179,-1249.8278253030408,-6.708072395331783,Cc1c(O)c(C)c2sc(NCc3cccnc3)nc2c1C,train_full
666,214,3,data/moses_wfns/archive_0_0_2.tar,-1256.5405469971004,-103.07936265127394,1765.8442958398591,-5223.629220936293,2304.350904174435,-1.0562206679949393,-3.904996802075551,-1.0920209815626052,4.19012075576503,0.0170257153001375,0.0057102881796942,0.0047305627875533,-0.2666822521885754,0.0435422716363467,0.3102245238249221,-1249.8278253030408,-6.71272169405961,Cc1c(O)c(C)c2sc(NCc3cccnc3)nc2c1C,train_full
667,215,0,data/moses_wfns/archive_0_0_2.tar,-1217.2634100506152,-98.8908958452324,1543.877451263079,-4727.114956302111,2064.8868841932936,0.1106547387893613,-3.6446644673821593,-0.5567489140204995,3.688603110159404,0.0322229128673334,0.0039441375549395,0.0035218760337537,-0.271155445445976,0.0345973547122456,0.3057528001582216,-1211.0247394438363,-6.238670606778896,Cc1cc(O)c(C)c2sc(NCc3cccnc3)nc12,train_full
668,215,1,data/moses_wfns/archive_0_0_2.tar,-1217.2557071128565,-98.923926191476,1631.3203955359766,-4902.619687782572,2152.991143188012,2.166828654901978,0.808189035444583,-0.256748798942885,2.3268510658131465,0.0201576885544844,0.0062577141837668,0.005370835427023,-0.2637221663231271,0.0338363944703006,0.2975585607934277,-1211.0247394438363,-6.230967669019947,Cc1cc(O)c(C)c2sc(NCc3cccnc3)nc12,test_full_conformations
669,215,2,data/moses_wfns/archive_0_0_2.tar,-1217.2696431160978,-98.88248109231836,1632.0285025832356,-4904.341736787213,2153.9510473709224,-0.9339833720683032,1.6517647099321142,-1.1411426190218712,2.2142398409443578,0.0195237321459856,0.0064538440912599,0.0054133893363789,-0.2679478634463018,0.046252953901285,0.3142008173475867,-1211.0247394438363,-6.244903672261444,Cc1cc(O)c(C)c2sc(NCc3cccnc3)nc12,train_full
670,215,3,data/moses_wfns/archive_0_0_2.tar,-1217.256628239533,-98.89705563559536,1632.056353576552,-4904.256815829302,2153.864311757688,1.0580814782522698,-0.0185678592465239,2.278471434284356,2.5122327234687707,0.0211299291964508,0.0061536635395602,0.0052864672015775,-0.2666321343470805,0.0371265824310092,0.3037587167780897,-1211.0247394438363,-6.231888795696705,Cc1cc(O)c(C)c2sc(NCc3cccnc3)nc12,train_full
671,216,0,data/moses_wfns/archive_0_0_2.tar,-3224.643555732468,-130.27215485796958,1330.996237995334,-7114.4639202076605,2689.1141285461063,0.6117595546559861,3.520724055862464,0.5905886761422536,3.621952873054672,0.0191334252394863,0.0104985351970284,0.006938687924179,-0.3081182376642531,-0.0047296328767809,0.3033886047874722,-3220.0937248662253,-4.549830866242246,COc1cc(Br)c2c(c1OC)C(=O)CC2,"train_large,train_full"
672,217,0,data/moses_wfns/archive_0_0_2.tar,-877.0552296420607,-84.85547092227678,1412.186930611732,-3993.484175110904,1789.1174130852978,-1.4386668496726054,1.2034931108530118,1.4225269630786517,2.354090255895753,0.030865748095782,0.0051068597949102,0.0043893875395309,-0.2809427292450125,-0.0142473758985615,0.266695353346451,-870.802680958465,-6.252548683595705,COc1cc2ncc(-c3ccccc3)nc2cc1OC,train_full
673,218,0,data/moses_wfns/archive_0_0_2.tar,-1232.086279447581,-99.324615654138,1631.3927008994742,-4924.184734980406,2160.0521416450965,-5.964678908037726,0.4323536444649465,-0.632312556951285,6.013663053376911,0.0178964433969197,0.0073178293965416,0.0062268709874619,-0.2589109863645371,-0.0001559524255262,0.2587550339390109,-1226.2415751586464,-5.844704288934736,Cc1ccc2nc(N)[nH]c(=O)c2c1Sc1ccncc1,train_full
674,218,1,data/moses_wfns/archive_0_0_2.tar,-1232.0880454946712,-99.37955904678572,1626.5260113749264,-4914.7871647390375,2155.573950120156,-6.535947449377322,1.6708462425090544,0.6818456878536038,6.780505126402686,0.0181127106931101,0.0073792595354872,0.0059170278071403,-0.2560851827384099,0.0061684300045232,0.2622536127429331,-1226.2415751586464,-5.846470336024822,Cc1ccc2nc(N)[nH]c(=O)c2c1Sc1ccncc1,test_full_conformations
675,219,0,data/moses_wfns/archive_0_0_2.tar,-821.842560262185,-79.88761227110575,1423.255911830814,-3941.557176890518,1776.3719490637425,2.0494097512559057,-0.0667317742857572,3.010972570271009,3.6428682761206894,0.0194810884066996,0.0122594230024479,0.0098644660681249,-0.3250086727333224,0.0219149987982665,0.3469236715315889,-815.7777728677181,-6.064787394466862,O=C1c2ccccc2C2(c3ccccc3)OCCN12,test_full_conformations
676,219,1,data/moses_wfns/archive_0_0_2.tar,-821.8312882493035,-79.8777393455691,1423.0673213857187,-3941.178269924434,1776.182886781706,2.711584026951196,-1.032303025689662,-1.8841567870652507,3.459535267967208,0.01834193999808,0.0120639199886938,0.0103890424470609,-0.3249663737652584,0.0164629753988394,0.3414293491640978,-815.7777728677181,-6.053515381585385,O=C1c2ccccc2C2(c3ccccc3)OCCN12,train_full
677,220,0,data/moses_wfns/archive_0_0_2.tar,-841.4563021921217,-81.970899693423,1351.5820736484966,-3826.2918026282414,1715.2488477251045,0.2500379252624895,-1.1362891816504286,2.6020870703714176,2.850355976049216,0.0245563261789972,0.0051182807386697,0.0044088968556689,-0.2521949573231477,0.0539649191834121,0.3061598765065598,-835.014554649457,-6.441747542664757,COc1ccc2[nH]cc(CCNC(=O)C3CC3)c2c1,test_full_conformations
678,220,1,data/moses_wfns/archive_0_0_2.tar,-841.4650285647131,-81.96236378793553,1380.0853094532758,-3882.7245883306177,1743.162247230916,0.8963682607468094,-4.527237667097161,3.691411576940932,5.909811873793542,0.0204073182710961,0.006023377466888,0.0055919796774595,-0.2698777287202418,0.0446286069518726,0.3145063356721144,-835.014554649457,-6.450473915256112,COc1ccc2[nH]cc(CCNC(=O)C3CC3)c2c1,train_full
679,220,2,data/moses_wfns/archive_0_0_2.tar,-841.4683224777568,-81.94646873642412,1403.240261729767,-3929.03183762696,1766.2967729696186,-0.8567994054503599,0.29931836984175,-3.379355548249113,3.499105689913764,0.0222434644134905,0.0065874920867196,0.005995872464567,-0.2667193453597901,0.0524048209838539,0.319124166343644,-835.014554649457,-6.453767828299874,COc1ccc2[nH]cc(CCNC(=O)C3CC3)c2c1,train_full
680,221,0,data/moses_wfns/archive_0_0_2.tar,-955.0531673749834,-89.58608943630426,1463.7853723975531,-4209.223727927487,1879.9927689851845,-0.416679270881865,-0.657878008380937,3.5521617265518457,3.6365200426058015,0.0361700358017312,0.0043228924465134,0.0040647440713092,-0.2948723803319983,0.0137294202277849,0.3086018005597832,-948.8897862467574,-6.163381128226092,COc1ccc(CC(=O)c2c(O)cc(O)cc2O)cc1,test_full_scaffolds
681,221,1,data/moses_wfns/archive_0_0_2.tar,-955.068770220078,-89.55940708797976,1490.5003109355478,-4262.803483517007,1906.816003633844,0.4862614853714777,1.0625394508165251,-4.373769188252831,4.527173205081399,0.0212547726567491,0.0054020538166037,0.0050223193903824,-0.2868466547810657,0.0107644486379675,0.2976111034190332,-948.8897862467574,-6.178983973320555,COc1ccc(CC(=O)c2c(O)cc(O)cc2O)cc1,test_full_scaffolds
682,221,2,data/moses_wfns/archive_0_0_2.tar,-955.0449828435108,-89.59164439387213,1488.7526736795055,-4258.792821583487,1904.6090703612583,0.74157911473796,1.0359790776694235,-1.170884984578084,1.7303652446506044,0.0216135038996133,0.0053434724899454,0.0049601760861368,-0.2953523877606102,0.003603227640033,0.2989556154006432,-948.8897862467574,-6.1551965967535125,COc1ccc(CC(=O)c2c(O)cc(O)cc2O)cc1,test_full_scaffolds
683,221,3,data/moses_wfns/archive_0_0_2.tar,-955.0829304924551,-89.5986495203582,1463.6215078436694,-4209.365043021915,1880.2804721886755,-1.5598625144601834,-0.734039264529909,-3.268551099782801,3.6953228543364127,0.0378583159949299,0.0042798164956472,0.0040295023583044,-0.2875534003038934,0.0115424188251334,0.2990958191290268,-948.8897862467574,-6.1931442456979084,COc1ccc(CC(=O)c2c(O)cc(O)cc2O)cc1,test_full_scaffolds
684,221,4,data/moses_wfns/archive_0_0_2.tar,-955.0526013750684,-89.52585059611222,1480.4843420889638,-4243.61951261777,1897.63001738448,-2.635093925357808,-0.1019989642777089,5.177171324426667,5.810096961896344,0.0214267666424747,0.0052773458611805,0.0048402676440016,-0.2834590356121446,0.0102441231799519,0.2937031587920964,-948.8897862467574,-6.162815128311081,COc1ccc(CC(=O)c2c(O)cc(O)cc2O)cc1,test_full_scaffolds
685,222,0,data/moses_wfns/archive_0_0_2.tar,-856.0884373823061,-83.38549478156463,1324.9746032213404,-3790.198175718537,1692.5398760685955,0.4657309294230988,-3.677534623404999,-0.8519816545300909,3.803556091951278,0.0567794248424435,0.0036336871979197,0.0034412827156314,-0.2818233981186708,0.0077093470840071,0.2895327452026779,-849.8459244339707,-6.2425129483353885,O=C(Nc1ccc(-c2cc[nH]n2)cc1)c1ccccc1,train_full
686,223,0,data/moses_wfns/archive_0_0_2.tar,-1432.1573842141,-116.005411860978,1925.0069206303288,-5777.649026719777,2536.516086619265,-1.594119351015838,-5.073209481943058,0.3972764127138365,5.332588442872643,0.0091073905280098,0.0031473990903564,0.0024020274601699,-0.2874591727886384,0.0082491614011743,0.2957083341898127,-1424.7363518930918,-7.421032321008397,O=C(Nc1ccc(Cl)cc1)c1ccccc1NCc1ccncc1,test_full_conformations
687,223,1,data/moses_wfns/archive_0_0_2.tar,-1432.1632507500742,-115.96965507636456,1948.709736110924,-5824.99071002961,2560.115431273518,-1.5306076433447429,-2.1883804316250632,-2.736088671546791,3.82334276385881,0.0165183231221713,0.0025907533282439,0.0023982043257357,-0.2896456999138475,0.0034130925678564,0.2930587924817038,-1424.7363518930918,-7.426898856982461,O=C(Nc1ccc(Cl)cc1)c1ccccc1NCc1ccncc1,train_full
688,223,2,data/moses_wfns/archive_0_0_2.tar,-1432.1587192753827,-116.00470229537056,1964.322372718531,-5856.3003713048565,2575.852342789702,-1.248392047704392,-3.700271329656444,0.7050034759111233,3.9683145690451256,0.0157865435415841,0.0027091922839965,0.0024965022498863,-0.2905551538694098,0.0043181526693017,0.2948733065387114,-1424.7363518930918,-7.422367382290986,O=C(Nc1ccc(Cl)cc1)c1ccccc1NCc1ccncc1,train_full
689,223,3,data/moses_wfns/archive_0_0_2.tar,-1432.157087142115,-115.97322776097904,1956.5425620122608,-5840.7421398364,2568.044039739715,-1.291185780036518,-3.3123783503000013,1.2036648613185237,3.7533745020284894,0.0168637765033027,0.0026132001938365,0.0024269054095557,-0.2891250673659868,0.0045491095845655,0.2936741769505523,-1424.7363518930918,-7.42073524902321,O=C(Nc1ccc(Cl)cc1)c1ccccc1NCc1ccncc1,train_full
690,223,4,data/moses_wfns/archive_0_0_2.tar,-1432.1579741034482,-115.98818562317472,1926.284783942424,-5780.216500416356,2537.787955652641,-1.5090787997286024,-5.404923978157651,0.2847434280893278,5.618861170494775,0.0086962643343843,0.0032849672692421,0.0024507625076422,-0.2846743088363963,0.0099607606842851,0.2946350695206813,-1424.7363518930918,-7.421622210356418,O=C(Nc1ccc(Cl)cc1)c1ccccc1NCc1ccncc1,train_full
691,224,0,data/moses_wfns/archive_0_0_2.tar,-1011.156068856422,-97.26403819214812,1751.364280459037,-4853.758485957307,2188.5340530040216,1.240884082036449,-0.5969259846015951,-1.6391422525418164,2.1407711835252,0.0280932554924578,0.0031676247479569,0.0029495005293712,-0.274463038342964,0.0010819083722594,0.2755449467152234,-1003.8192266979172,-7.336842158504737,COc1cc2ncc(NC3CCC(O)CC3)nc2cc1OC,test_full_conformations
692,224,1,data/moses_wfns/archive_0_0_2.tar,-1011.166825015492,-97.24280434750143,1771.3045364530797,-4893.853727781015,2208.6565199853094,1.742047794556656,-0.5181330109543173,-1.7347079615022891,2.5124498098986425,0.0214831022477708,0.0036641063676896,0.0032652453518606,-0.27612886323208,0.00134055557762,0.2774694188097,-1003.8192266979172,-7.347598317574807,COc1cc2ncc(NC3CCC(O)CC3)nc2cc1OC,train_full
693,224,2,data/moses_wfns/archive_0_0_2.tar,-1011.1556600622464,-97.27716269663594,1816.1037324907632,-4983.561193575584,2253.611545059337,0.5049881576996484,-1.3888919772271024,-0.1695547578080438,1.487542530389649,0.0168317472654442,0.0047465556381242,0.0038723685040118,-0.2733871051854605,-5.83320997504512e-06,0.2733812719754854,-1003.8192266979172,-7.336433364329082,COc1cc2ncc(NC3CCC(O)CC3)nc2cc1OC,train_full
694,225,0,data/moses_wfns/archive_0_0_2.tar,-918.6223076924606,-86.22104532250415,1380.6096701565707,-3992.7035293759136,1779.716816420584,-1.5581078615222017,-0.228644752541162,-0.9280253984492878,1.8278976095965704,0.0501436762986718,0.0038810515327672,0.0036841619031534,-0.3018818694184495,0.0511209383396993,0.3530028077581488,-912.5502537841764,-6.072053908284261,CC(=O)N1CCN(C(=O)Nc2ccc(F)cc2)CC1,test_full_structures
695,225,1,data/moses_wfns/archive_0_0_2.tar,-918.6113583239415,-86.23104452178738,1386.252581070559,-4003.9058625223583,1785.2968774015274,-1.81020371716109,-1.706930078335278,-5.601731409465477,6.129424326455265,0.0385601924161094,0.0041131794440723,0.0038784610078334,-0.3011443369115944,0.052110889673002,0.3532552265845964,-912.5502537841764,-6.061104539765211,CC(=O)N1CCN(C(=O)Nc2ccc(F)cc2)CC1,test_full_structures
696,225,2,data/moses_wfns/archive_0_0_2.tar,-918.6110640564197,-86.2358018620057,1383.775158684964,-3999.0805939844167,1782.954110786823,-1.9738981372067133,1.6230518020860794,-1.345904525093556,2.8882572598351266,0.048135028356856,0.0039535628114907,0.0037497547009155,-0.2995112990124574,0.0506205419823451,0.3501318409948025,-912.5502537841764,-6.060810272243202,CC(=O)N1CCN(C(=O)Nc2ccc(F)cc2)CC1,test_full_structures
697,225,3,data/moses_wfns/archive_0_0_2.tar,-918.6097016141154,-86.23852120159238,1376.6749659275918,-3984.905414865958,1775.8832163501372,-2.297035627542403,-3.392177015804282,4.632538095045892,6.184144789928628,0.0520617332808317,0.0037905107772188,0.0035877750843059,-0.3004832285696058,0.0519857154144192,0.352468943984025,-912.5502537841764,-6.0594478299390175,CC(=O)N1CCN(C(=O)Nc2ccc(F)cc2)CC1,test_full_structures
698,226,0,data/moses_wfns/archive_0_0_2.tar,-1078.693345539212,-102.935613769087,1797.9825685141452,-5035.3585537855015,2261.6397473714032,0.0606183079966465,-5.351802196928565,0.6057956076149292,5.386320604319737,0.0311061667359791,0.0025258972861818,0.0023394326401232,-0.2850802453911373,-0.0105339681850401,0.2745462772060972,-1071.665531539713,-7.027813999499358,Cc1nc2ccc(NC(=O)Nc3ccnc4cccnc34)cc2o1,test_full_conformations