,MOSES id,CONFORMER id,archive name,DFT TOTAL ENERGY,DFT XC ENERGY,DFT NUCLEAR REPULSION ENERGY,DFT ONE-ELECTRON ENERGY,DFT TWO-ELECTRON ENERGY,DFT DIPOLE X,DFT DIPOLE Y,DFT DIPOLE Z,DFT TOTAL DIPOLE,DFT ROT CONSTANT A,DFT ROT CONSTANT B,DFT ROT CONSTANT C,DFT HOMO,DFT LUMO,DFT HOMO-LUMO GAP,DFT ATOMIC ENERGY,DFT FORMATION ENERGY,SMILES,SPLITS
792,254,0,data/moses_wfns/archive_0_0_2.tar,-1540.3317614265206,-100.68097346653909,1268.629526402298,-4633.67325205321,1925.4075476782264,-0.4580495321395814,-3.0270374901356103,-4.215625518270839,5.210015724628484,0.0266062627443548,0.008162909124402,0.0069703341111553,-0.300570854732008,0.0113238380799597,0.3118946928119677,-1536.2897203659284,-4.0420410605922825,Nc1nnc(-c2cccc(Cl)c2Cl)c(N)n1,train_full
793,255,0,data/moses_wfns/archive_0_0_2.tar,-1460.6169846961575,-110.43937753493024,1693.4094190779556,-5371.295204307527,2327.727874729065,3.595818205600847,-3.0407498631644594,-0.1279414416783938,4.7108849816742415,0.0143031838059424,0.0066493770278617,0.0048928469066928,-0.2907008017682243,-0.0027858263739011,0.2879149753943232,-1455.475612199269,-5.14137249688838,Cc1cc(=O)c(N)nn1-c1cc(C(F)(F)F)ccc1Cl,train_full
794,255,1,data/moses_wfns/archive_0_0_2.tar,-1460.6006868648583,-110.51535464196871,1715.7784805355802,-5416.065680674872,2350.222239433648,4.576063665245134,-0.6620729723843664,1.3079929972789708,4.805158162856809,0.0192909453880423,0.005615873535774,0.0053658350806786,-0.292088369902299,-0.0033727192529902,0.2887156506493088,-1455.475612199269,-5.125074665589182,Cc1cc(=O)c(N)nn1-c1cc(C(F)(F)F)ccc1Cl,train_full
795,255,2,data/moses_wfns/archive_0_0_2.tar,-1460.6190769861832,-110.4790680827532,1717.4112506770423,-5419.555588415984,2352.0246940779352,3.5686594142623345,0.4170326403325867,-0.8609623909590981,3.694658641437929,0.020074077958191,0.0060089245932484,0.0048662925206127,-0.2825547071131265,-0.0008711273036172,0.2816835798095093,-1455.475612199269,-5.143464786914137,Cc1cc(=O)c(N)nn1-c1cc(C(F)(F)F)ccc1Cl,test_full_conformations
796,256,0,data/moses_wfns/archive_0_0_2.tar,-1395.5227826901676,-111.61134836906928,1841.451839762708,-5564.585710749967,2439.2550537262423,-0.3125933282140652,0.90480275906541,-4.890839969966016,4.9836430684263,0.0295056870009002,0.0024728167772465,0.0023944605730483,-0.2822066637359818,0.0489340345919135,0.3311406983278953,-1388.3287049976473,-7.194077692520295,O=C(CN1CCCC1=O)N1CCN(c2cccc(Cl)c2)CC1,train_full
797,256,1,data/moses_wfns/archive_0_0_2.tar,-1395.5308932453163,-111.61071021043912,1856.0018730388888,-5593.664298366539,2453.7746251264352,-0.0615742845098715,-2.809881546604805,-3.9431862512023312,4.842307663721318,0.02400209044153,0.0026667704774783,0.0026114093034922,-0.2832065220153869,0.0501073248807093,0.3333138468960961,-1388.3287049976473,-7.202188247669028,O=C(CN1CCCC1=O)N1CCN(c2cccc(Cl)c2)CC1,train_full
798,256,2,data/moses_wfns/archive_0_0_2.tar,-1395.5296397410757,-111.65023901834974,1861.3661949906643,-5604.334844495405,2459.1215089507914,0.513995028899077,3.512324906197696,1.7853887458358064,3.9734405884808153,0.0230609155011145,0.0027472914286132,0.0026750685434498,-0.2802266286716899,0.0490403858886818,0.3292670145603717,-1388.3287049976473,-7.200934743428434,O=C(CN1CCCC1=O)N1CCN(c2cccc(Cl)c2)CC1,train_full
799,256,3,data/moses_wfns/archive_0_0_2.tar,-1395.4951217514945,-111.63980001205576,1904.987975164376,-5691.253533549536,2502.44471033415,-1.6907536916262813,-1.9275386838064767,3.587775380790033,4.40978294322083,0.0149300859138377,0.0036346554389384,0.0031894391464074,-0.2808200555200438,0.0507940238061323,0.3316140793261761,-1388.3287049976473,-7.166416753847216,O=C(CN1CCCC1=O)N1CCN(c2cccc(Cl)c2)CC1,test_full_conformations
800,256,4,data/moses_wfns/archive_0_0_2.tar,-1395.482846116825,-111.5905556107418,1896.280405405388,-5674.082944553251,2493.943885361404,-4.874530078436178,4.011159703074324,-4.318015507928788,7.648248399199637,0.0187351119190508,0.0033000074999288,0.0029699550404943,-0.2772891443990947,0.0523292216658288,0.3296183660649235,-1388.3287049976473,-7.154141119177666,O=C(CN1CCCC1=O)N1CCN(c2cccc(Cl)c2)CC1,train_full
801,256,5,data/moses_wfns/archive_0_0_2.tar,-1395.490761494145,-111.60194999101113,1931.1943693103865,-5743.331754186664,2528.284617799838,-1.4925510764062122,0.3535433227294946,-6.352866222440342,6.535412063286551,0.0179528241783576,0.0036852180634391,0.0033283526791039,-0.2835121059437056,0.0532459583647308,0.3367580643084363,-1388.3287049976473,-7.162056496497826,O=C(CN1CCCC1=O)N1CCN(c2cccc(Cl)c2)CC1,train_full
802,257,0,data/moses_wfns/archive_0_0_2.tar,-3369.281978608108,-144.98462256630717,1728.4312977728948,-8098.039121480057,3145.332012638989,-3.5911307547334017,0.0808556143812837,-0.2528003625036178,3.600925679773332,0.0225294127131347,0.0041720118997832,0.0036392632687678,-0.2819581173827314,-0.0141179761395839,0.2678401412431475,-3363.826226683675,-5.455751924432661,CCN1c2ncccc2NC(=O)c2cc(Br)cnc21,test_full_scaffolds
803,258,0,data/moses_wfns/archive_0_0_2.tar,-818.0440147766247,-79.70795125336149,1383.2845830065364,-3855.173846639469,1733.5761961594214,-2.296855985628649,-1.4090420343363563,1.7981157932067326,3.239470215795226,0.0310894175797359,0.008302044744815,0.0074794996734331,-0.2935363332538819,0.0103939112781843,0.3039302445320662,-812.047825091498,-5.996189685126751,Cc1cccnc1-n1c(C)nc2ccccc2c1=O,test_full_conformations
804,258,1,data/moses_wfns/archive_0_0_2.tar,-818.0399821571259,-79.72143612942628,1383.3636071814303,-3855.326281748422,1733.6672374835182,-2.6287909413526047,-0.3305186284715037,-2.6400646608764835,3.74028418582239,0.0326369923643864,0.0083870989590418,0.0076417887216413,-0.2933911505506165,0.0171865772995805,0.310577727850197,-812.047825091498,-5.992157065627907,Cc1cccnc1-n1c(C)nc2ccccc2c1=O,train_full
805,259,0,data/moses_wfns/archive_0_0_2.tar,-1351.7250995768889,-109.09568687302932,1955.094722516012,-5736.697529879823,2539.005987525291,-0.2491576072359049,5.211337096044687,-3.1033832367702368,6.070510798616662,0.011507165734801,0.0076509341476946,0.0052877837895353,-0.3013484104756088,-0.0066600256740088,0.2946883848016,-1345.1417393396073,-6.583360237281568,CC1(C)Oc2cc(C(N)=O)sc2C(N2CCCC2=O)C1O,train_full
806,259,1,data/moses_wfns/archive_0_0_2.tar,-1351.7572811446748,-109.109884878297,1959.5839742217352,-5745.1258497775,2542.9269572285007,-2.384793531869581,0.1152287523363961,0.4330522929883862,2.4265308865692377,0.0125768182735744,0.0072594162308734,0.0052802111192614,-0.3120321648874043,0.0029764748625389,0.3150086397499432,-1345.1417393396073,-6.615541805067551,CC1(C)Oc2cc(C(N)=O)sc2C(N2CCCC2=O)C1O,test_full_conformations
807,260,0,data/moses_wfns/archive_0_0_2.tar,-879.8968950903476,-83.52658641405802,1306.590537395134,-3792.4755682550367,1689.5357769753714,2.0368567527635526,4.984240620975678,1.0109690750969098,5.478457672544782,0.0441259969702097,0.0043644556351506,0.0041469644894681,-0.295981854345403,-0.0059548352490928,0.2900270190963102,-873.9131081482485,-5.983786942099073,O=C(CCc1ccc(O)cc1)c1ccc(O)cc1O,test_full_scaffolds
808,260,1,data/moses_wfns/archive_0_0_2.tar,-879.9550577431053,-83.54569877454288,1355.890438164022,-3890.780952428572,1738.5040411324464,-0.9592913316239744,-3.406255718201761,-2.3490755976570514,4.247466779177788,0.0263868136277062,0.0059774543973184,0.0056264462330283,-0.3068988666446186,0.0041397740142664,0.311038640658885,-873.9131081482485,-6.04194959485676,O=C(CCc1ccc(O)cc1)c1ccc(O)cc1O,test_full_scaffolds
809,260,2,data/moses_wfns/archive_0_0_2.tar,-879.9504846363312,-83.58932620491744,1304.426533137154,-3787.61685845138,1686.8499555282078,-1.251374369448701,-1.68361028161157,-2.403159551176545,3.189930598190559,0.0304125319346133,0.004671706277015,0.0041279786249343,-0.3113978935352015,0.004841814550894,0.3162397080860955,-873.9131081482485,-6.037376488082714,O=C(CCc1ccc(O)cc1)c1ccc(O)cc1O,test_full_scaffolds
810,260,3,data/moses_wfns/archive_0_0_2.tar,-879.9361539867047,-83.5299734654889,1301.2853551843723,-3781.3047372564815,1683.6343502682005,-0.4480238947053093,2.658977529156098,-0.7604694089447401,2.801642488385116,0.038138936951677,0.0044017373482143,0.0041230397816025,-0.2986158879691067,0.0017757092105404,0.3003915971796471,-873.9131081482485,-6.023045838456142,O=C(CCc1ccc(O)cc1)c1ccc(O)cc1O,test_full_scaffolds
811,261,0,data/moses_wfns/archive_0_0_2.tar,-893.1755889011274,-85.70461174291945,1440.5906386176118,-4073.5168171039895,1825.4759203570068,-1.33573550538349,-3.045086911456951,-3.975604255955445,5.182873029376619,0.0272070864738289,0.0058684674209935,0.0048459195115385,-0.289770019666743,0.0182641474647641,0.3080341671315071,-887.0245031900068,-6.151085711120572,Cn1c(O)c(C(=O)Nc2ccccc2)c2cccnc21,train_full
812,262,0,data/moses_wfns/archive_0_0_2.tar,-1010.9681033743516,-98.29391980675176,1878.69282914608,-5104.938471298375,2313.60395916616,-2.3248472476673294,-1.2846659910385765,-1.5845574531742492,3.092911857122273,0.0182131315330598,0.0045722769756587,0.0037723669794056,-0.2892041005972416,0.0185304754973342,0.3077345760945758,-1003.4337607676212,-7.534342606730547,CC(C)(C)n1c(O)c(C(=O)Nc2ccccc2)c2cccnc21,test_full_structures
813,262,1,data/moses_wfns/archive_0_0_2.tar,-1010.9658017707908,-98.28096380033354,1887.7665893256408,-5123.257460623459,2322.8386209935443,-2.003576566222163,-1.6070103110886946,-1.564985817185513,3.007653870486393,0.0178077458094918,0.0047390555189169,0.0038932387701128,-0.2882704783230863,0.0157973199037189,0.3040677982268052,-1003.4337607676212,-7.532041003169638,CC(C)(C)n1c(O)c(C(=O)Nc2ccccc2)c2cccnc21,test_full_structures
814,263,0,data/moses_wfns/archive_0_0_2.tar,-1277.7578993116058,-103.50343247109498,1797.166497687694,-5316.777923905924,2345.3876833307786,-5.858555689315668,-3.2871744363084465,-6.717556663372963,9.500197790844105,0.0122529573018967,0.00699496057319,0.0051713561177933,-0.3326184748283052,0.0231075335953013,0.3557260084236065,-1271.1700477578315,-6.587851553774272,Cc1ccc(S(=O)(=O)NC(C)C(=O)N2CCCC2)cc1,test_full_scaffolds
815,263,1,data/moses_wfns/archive_0_0_2.tar,-1277.756260485906,-103.4595835086718,1779.7201398944824,-5282.104687533243,2328.118720564996,-0.656492353730798,-4.9467348879763104,-8.116548111301535,9.52782879283111,0.0153746008711625,0.0056602767993755,0.0045243183863856,-0.3230402818289748,0.0107538148932581,0.3337940967222329,-1271.1700477578315,-6.586212728074543,Cc1ccc(S(=O)(=O)NC(C)C(=O)N2CCCC2)cc1,test_full_scaffolds
816,263,2,data/moses_wfns/archive_0_0_2.tar,-1277.748618917515,-103.48016148756216,1792.2342310309346,-5307.347514482384,2340.875473197588,-6.13064268252947,-2.4765495212376862,-6.488616887313982,9.263920678758586,0.013148247152706,0.0065578897281387,0.0049942539545657,-0.3293222255609311,0.0282407966380657,0.3575630221989968,-1271.1700477578315,-6.578571159683406,Cc1ccc(S(=O)(=O)NC(C)C(=O)N2CCCC2)cc1,test_full_scaffolds
817,263,3,data/moses_wfns/archive_0_0_2.tar,-1277.7440726978389,-103.50493863293518,1780.7713849075687,-5284.057623911473,2329.078492856262,-1.031770401219005,-0.3122760191437207,-10.280952538876052,10.33731355718621,0.0156356977602461,0.0055662219349817,0.0044931285567849,-0.3167826015261337,0.0207236017341952,0.3375062032603289,-1271.1700477578315,-6.574024940007348,Cc1ccc(S(=O)(=O)NC(C)C(=O)N2CCCC2)cc1,test_full_scaffolds
818,263,4,data/moses_wfns/archive_0_0_2.tar,-1277.740595535323,-103.47066781256449,1783.5613562169578,-5289.617655577384,2331.817715247039,-1.3511537549259016,2.9600080965950646,-10.528149963674242,11.01949209623441,0.0145877503061195,0.0058695061810652,0.0046212800194512,-0.3151825341002682,0.0140524264629043,0.3292349605631725,-1271.1700477578315,-6.570547777491811,Cc1ccc(S(=O)(=O)NC(C)C(=O)N2CCCC2)cc1,test_full_scaffolds
819,263,5,data/moses_wfns/archive_0_0_2.tar,-1277.7154639902967,-103.43448573674928,1769.568546718458,-5261.447042755006,2317.628421032177,-1.777481554945229,-4.652071733823686,1.2582411087041363,5.136573058221292,0.0192628442701665,0.0052047932552735,0.0046100495677469,-0.3263512438747367,0.0125427610114655,0.3388940048862022,-1271.1700477578315,-6.545416232465186,Cc1ccc(S(=O)(=O)NC(C)C(=O)N2CCCC2)cc1,test_full_scaffolds
820,263,6,data/moses_wfns/archive_0_0_2.tar,-1277.682862673422,-103.43508201114994,1752.6800210019703,-5227.651820239244,2300.754422410176,-1.8108488082642027,2.71131382952122,-2.011422607224417,3.830955101981538,0.025029673155112,0.0045266527534405,0.0042677181012286,-0.3191221170608511,0.0097916020508703,0.3289137191117214,-1271.1700477578315,-6.512814915590525,Cc1ccc(S(=O)(=O)NC(C)C(=O)N2CCCC2)cc1,test_full_scaffolds
821,263,7,data/moses_wfns/archive_0_0_2.tar,-1277.6585803687656,-103.40226284530478,1766.4565017020143,-5255.631621671129,2314.948232687711,1.811952622833901,6.793008120459022,-0.0592361704534709,7.030763867170257,0.0262504952427244,0.0047203969704875,0.0045412485891258,-0.3151469154163814,0.0093290875241636,0.324476002940545,-1271.1700477578315,-6.488532610934044,Cc1ccc(S(=O)(=O)NC(C)C(=O)N2CCCC2)cc1,test_full_scaffolds
822,263,8,data/moses_wfns/archive_0_0_2.tar,-1277.761096136898,-103.49534567346676,1791.3243899671104,-5305.160918007831,2339.601330638434,-4.941090041144699,-0.7152515901968182,-7.351659762733949,8.886667367409437,0.0121871258333908,0.0069127908934054,0.0051401747626212,-0.3284455714669675,0.0205169891841156,0.3489625606510831,-1271.1700477578315,-6.5910483790664784,Cc1ccc(S(=O)(=O)NC(C)C(=O)N2CCCC2)cc1,test_full_scaffolds
823,264,0,data/moses_wfns/archive_0_0_2.tar,-1395.5727468096786,-116.04902315189148,2301.113927729829,-6480.051583879899,2899.4563493180426,-4.773341645038088,-1.4999259447356543,-8.010531245547302,9.44474346585632,0.008402344779763,0.0070790366676162,0.0044855199873699,-0.3382760682162296,0.0230300949141478,0.3613061631303774,-1387.5793053354455,-7.993441474232895,Cc1ccc(S(=O)(=O)NC(CC(C)C)C(=O)N2CCCC2)cc1,test_full_scaffolds
824,264,1,data/moses_wfns/archive_0_0_2.tar,-1395.5755368519208,-116.0442663463545,2271.538790797772,-6420.69630227328,2869.669490690952,-2.407993131954364,-7.744318404429602,4.248106849921412,9.15528865088784,0.0100811395739267,0.0051020294543117,0.0043654300445934,-0.3249517284975729,0.0169480327834863,0.3418997612810592,-1387.5793053354455,-7.996231516475063,Cc1ccc(S(=O)(=O)NC(CC(C)C)C(=O)N2CCCC2)cc1,test_full_scaffolds
825,264,2,data/moses_wfns/archive_0_0_2.tar,-1395.5615047237438,-116.05771334411423,2294.981896935499,-6467.449540221789,2893.0078200148137,-5.490676189032092,-5.996576272350746,-2.136866450378287,8.406702696638929,0.00879214494735,0.0064817399256803,0.0046188885651226,-0.3193117851620673,0.0166606315555741,0.3359724167176414,-1387.5793053354455,-7.982199388298113,Cc1ccc(S(=O)(=O)NC(CC(C)C)C(=O)N2CCCC2)cc1,test_full_scaffolds
826,264,3,data/moses_wfns/archive_0_0_2.tar,-1395.5793422573845,-116.04482814974402,2301.263986802044,-6480.33755861526,2899.5819234467776,-3.1931866868602263,5.250639103118856,-7.019773390752556,9.329676878963165,0.0084428128871515,0.0071248405709305,0.0044672049621304,-0.3340633022226066,0.0273818714030137,0.3614451736256203,-1387.5793053354455,-8.000036921938545,Cc1ccc(S(=O)(=O)NC(CC(C)C)C(=O)N2CCCC2)cc1,test_full_scaffolds
827,264,4,data/moses_wfns/archive_0_0_2.tar,-1395.565663745165,-116.0458795526497,2278.829893720061,-6435.372508413391,2877.0669697636818,-0.3839213240972866,4.521950985749608,8.485601363863758,9.622934417682837,0.0108761428480221,0.0048498634978366,0.0042814933637468,-0.322526553999268,0.0124215041292977,0.3349480581285657,-1387.5793053354455,-7.986358409719287,Cc1ccc(S(=O)(=O)NC(CC(C)C)C(=O)N2CCCC2)cc1,test_full_scaffolds
828,264,5,data/moses_wfns/archive_0_0_2.tar,-1395.5596965323573,-116.06171218178842,2263.578469440427,-6404.493105290162,2861.4591883425505,-2.1993671780902835,-10.40870005346714,-0.0119815717071364,10.638533561782294,0.0095189996502559,0.0047745764025261,0.0045654889601364,-0.3155094184849927,0.0140418826271746,0.3295513011121673,-1387.5793053354455,-7.980391196911569,Cc1ccc(S(=O)(=O)NC(CC(C)C)C(=O)N2CCCC2)cc1,test_full_scaffolds
829,264,6,data/moses_wfns/archive_0_0_2.tar,-1395.4346017403327,-115.99825783198946,2234.175757544532,-6345.747729230146,2832.1765265798813,-1.1054100868641756,4.797334894066589,-0.4501675141021352,4.943582136135987,0.0105625301623586,0.0047507347650997,0.0040157913679006,-0.3179382071532606,0.0142101144959801,0.3321483216492407,-1387.5793053354455,-7.855296404886985,Cc1ccc(S(=O)(=O)NC(CC(C)C)C(=O)N2CCCC2)cc1,test_full_scaffolds
830,264,7,data/moses_wfns/archive_0_0_2.tar,-1395.4943295568762,-116.02536768066622,2227.1358831250245,-6332.863019647757,2826.2982091384947,4.760792093778695,5.274964568800636,3.991838023464199,8.15016339516346,0.0127281992897197,0.00416397122914,0.0035823359217735,-0.3044872551055433,0.0150743674395635,0.3195616225451068,-1387.5793053354455,-7.915024221430485,Cc1ccc(S(=O)(=O)NC(CC(C)C)C(=O)N2CCCC2)cc1,test_full_scaffolds
831,264,8,data/moses_wfns/archive_0_0_2.tar,-1395.587336435798,-116.05093329624512,2297.2325695675027,-6472.320534292771,2895.5942641665897,-4.489124294426093,-0.7647552086959474,-7.822200136957467,9.051182378156543,0.0084604649069455,0.0069894253680511,0.0044566826893217,-0.3348999913110277,0.0253773255844215,0.3602773168954492,-1387.5793053354455,-8.008031100352355,Cc1ccc(S(=O)(=O)NC(CC(C)C)C(=O)N2CCCC2)cc1,test_full_scaffolds
832,264,9,data/moses_wfns/archive_0_0_2.tar,-1395.5135720886724,-116.00905869320133,2239.7874545470645,-6357.968448250607,2838.7172310402884,-5.932783952824181,0.2590711990903619,-5.523507005688233,8.110127801642415,0.0110329341957861,0.0048190827536566,0.0036728561729419,-0.3219293666575333,0.0374961117038514,0.3594254783613847,-1387.5793053354455,-7.934266753226666,Cc1ccc(S(=O)(=O)NC(CC(C)C)C(=O)N2CCCC2)cc1,test_full_scaffolds
833,264,10,data/moses_wfns/archive_0_0_2.tar,-1395.2188582597712,-116.07121714997226,2281.8625812755017,-6443.139624440448,2882.169244745214,-0.0677082199990018,-4.905535617239158,-1.9473392302553847,5.278351463548922,0.0122260394746665,0.0047583902464626,0.0038148564529738,-0.2475798096797114,0.0080622107135515,0.2556420203932629,-1387.5793053354455,-7.639552924325471,Cc1ccc(S(=O)(=O)NC(CC(C)C)C(=O)N2CCCC2)cc1,test_full_scaffolds
834,264,11,data/moses_wfns/archive_0_0_2.tar,-1395.563286779418,-116.03853846737957,2279.603006604661,-6436.986917456677,2877.9023017338427,-4.28954088802866,-0.8048212647090871,-6.765445721334562,8.051034350101965,0.0099755470944668,0.0057252416891563,0.0041641782616623,-0.3284007250652707,0.0252275215059123,0.3536282465711829,-1387.5793053354455,-7.983981443972425,Cc1ccc(S(=O)(=O)NC(CC(C)C)C(=O)N2CCCC2)cc1,test_full_scaffolds
835,264,12,data/moses_wfns/archive_0_0_2.tar,-1395.5711292016822,-116.0032656753067,2265.104978062965,-6407.848718846475,2863.2186880200493,3.307451478633033,5.798869564324865,8.197207340361016,10.571675916733051,0.0095037419379372,0.004809735219685,0.004664241309533,-0.3137871454901561,0.0139119590854989,0.327699104575655,-1387.5793053354455,-7.991823866236473,Cc1ccc(S(=O)(=O)NC(CC(C)C)C(=O)N2CCCC2)cc1,test_full_scaffolds
836,264,13,data/moses_wfns/archive_0_0_2.tar,-1395.4998111413845,-115.99701121577888,2256.596368864833,-6391.2226726541785,2855.167150907262,-2.865554707967474,-6.528760971053284,7.735015964184636,10.51981917942007,0.0118939102821611,0.0046651983886211,0.0036990155541929,-0.2969452756776727,0.0183807909058714,0.3153260665835441,-1387.5793053354455,-7.920505805938774,Cc1ccc(S(=O)(=O)NC(CC(C)C)C(=O)N2CCCC2)cc1,test_full_scaffolds
837,264,14,data/moses_wfns/archive_0_0_2.tar,-1395.5711722952533,-116.02303788126623,2281.0541055559283,-6439.501036289451,2878.941240493313,-5.619784303193666,-4.342643952558466,-6.607562177445955,9.700536585257996,0.0089686872606251,0.0061305052025221,0.0044117435514845,-0.3315929145318084,0.02241876539465,0.3540116799264584,-1387.5793053354455,-7.991866959807567,Cc1ccc(S(=O)(=O)NC(CC(C)C)C(=O)N2CCCC2)cc1,test_full_scaffolds