,MOSES id,CONFORMER id,archive name,DFT TOTAL ENERGY,DFT XC ENERGY,DFT NUCLEAR REPULSION ENERGY,DFT ONE-ELECTRON ENERGY,DFT TWO-ELECTRON ENERGY,DFT DIPOLE X,DFT DIPOLE Y,DFT DIPOLE Z,DFT TOTAL DIPOLE,DFT ROT CONSTANT A,DFT ROT CONSTANT B,DFT ROT CONSTANT C,DFT HOMO,DFT LUMO,DFT HOMO-LUMO GAP,DFT ATOMIC ENERGY,DFT FORMATION ENERGY,SMILES,SPLITS
559,177,2,data/moses_wfns/archive_0_0_1.tar,-1770.4043658555738,-126.0562413032164,2078.9113391125097,-6559.345364357369,2836.110792279015,1.7182544004070164,-2.3779979216649982,-5.125127437138907,5.905438472025185,0.0097996927024079,0.0066942518032984,0.0047522960099983,-0.304953809782673,-0.0381405425887594,0.2668132671939136,-1764.4343574316142,-5.970008423959598,NC(=O)c1[nH]c2ccc(Cl)cc2c1S(=O)(=O)c1ccccc1,test_full_scaffolds
560,178,0,data/moses_wfns/archive_0_0_1.tar,-868.2456075037597,-84.14086652293311,1421.5776422904737,-3996.6699362901054,1791.0077389456446,-6.507192777465951,-5.744032696431238,0.2066514646231396,8.682175665615564,0.0364822263871469,0.0053183747998253,0.0047272155317162,-0.3018188316865309,-0.024372792990788,0.2774460386957429,-862.3377988892925,-5.907808614467285,Cc1ccc2c(c1)c1nnc(-n3ccnc3)nc1n2C,train_full
561,179,0,data/moses_wfns/archive_0_0_1.tar,-3446.7662574852407,-151.8970026598815,1931.1787492441804,-8610.976580692584,3384.953899479923,1.4544801064093955,1.1399183782909712,-1.12763351322783,2.164828775968377,0.017890626093819,0.0038498111393626,0.0035245034616928,-0.2918300991660545,0.0282401748680988,0.3200702740341533,-3440.8128778156483,-5.953379669592323,COc1cc(Cc2cnc(N)nc2N)cc(OC)c1Br,train_full
562,179,1,data/moses_wfns/archive_0_0_1.tar,-3446.7902018257755,-151.8771138232489,1910.679678067757,-8570.306154061127,3364.737694819376,1.9715082015510992,-1.5979482393828193,3.003869064345029,3.932367292135741,0.0152788879567362,0.0037824537839735,0.0035844636763654,-0.2984528010894259,0.0345863589488821,0.333039160038308,-3440.8128778156483,-5.977324010127177,COc1cc(Cc2cnc(N)nc2N)cc(OC)c1Br,test_full_conformations
563,179,2,data/moses_wfns/archive_0_0_1.tar,-3446.763994048418,-151.89848444836855,1935.01101691269,-8618.619879318929,3388.7687564885587,1.2109981950266488,-1.7648012699215243,0.7142855185794272,2.25637850387002,0.017483894583185,0.0039243053690967,0.0035671093154705,-0.2903921008324628,0.0279852835991039,0.3183773844315667,-3440.8128778156483,-5.951116232769891,COc1cc(Cc2cnc(N)nc2N)cc(OC)c1Br,train_full
564,179,3,data/moses_wfns/archive_0_0_1.tar,-3446.7936571524588,-151.9135240075734,1909.9337614501967,-8568.701243361327,3363.911358383494,2.306210144129261,3.166889187048328,-1.248635776620486,4.111798104793689,0.0159218713107305,0.0036897124818538,0.003470980050418,-0.2979266068518978,0.0404977297049528,0.3384243365568506,-3440.8128778156483,-5.9807793368104285,COc1cc(Cc2cnc(N)nc2N)cc(OC)c1Br,train_full
565,180,0,data/moses_wfns/archive_0_0_1.tar,-939.8343654473032,-91.2604790090228,1593.847763396402,-4442.146105440686,1999.7517327345424,0.4056980682238431,-0.3356451629156689,-1.4199499632291337,1.5144327307687395,0.0213853238635685,0.0038331995765236,0.0034136537178528,-0.2642650804907426,0.0572224561586107,0.3214875366493533,-932.5724963756284,-7.26186907167471,COc1cc(CNc2ccc(C)cc2)cc(OC)c1OC,train_full
566,180,1,data/moses_wfns/archive_0_0_1.tar,-939.8284176269664,-91.2677048671595,1694.8212384913454,-4644.792483820102,2101.441171670658,2.4976221223914004,1.1661838468743555,0.9622506282858172,2.9195936879309152,0.0154792594171476,0.0062659122202817,0.0055693316694658,-0.2692563550991552,0.0609380121416712,0.3301943672408264,-932.5724963756284,-7.255921251337895,COc1cc(CNc2ccc(C)cc2)cc(OC)c1OC,train_full
567,180,2,data/moses_wfns/archive_0_0_1.tar,-939.3800847090296,-91.28911433087542,1646.853925294654,-4547.956054651598,2053.0407547937684,-2.22864538043714,1.7629468760292766,0.5023216942690878,2.885683455262991,0.0202344011767936,0.0045174454525811,0.0040665713001894,-0.2564109980169969,0.0447619650701607,0.3011729630871576,-932.5724963756284,-6.807588333401213,COc1cc(CNc2ccc(C)cc2)cc(OC)c1OC,train_full
568,180,3,data/moses_wfns/archive_0_0_1.tar,-939.8315184977812,-91.29614204398936,1687.749965902896,-4630.643726073418,2094.38889584912,0.4625611122564774,-0.1863968347036113,-3.40274922134726,3.4391000023173004,0.0166837444736486,0.0059306226880214,0.0052614798067134,-0.2640226153927429,0.065224791140577,0.3292474065333199,-932.5724963756284,-7.259022122152828,COc1cc(CNc2ccc(C)cc2)cc(OC)c1OC,test_full_conformations
569,181,0,data/moses_wfns/archive_0_0_1.tar,-788.3762552455704,-78.85429650898372,1317.325938998294,-3681.810427502433,1654.9898872183971,0.4234204571471919,2.735773104131442,2.288291346355133,3.591659316614469,0.0312567174152512,0.0048774893001981,0.004316379699392,-0.288576049571647,0.0178455315082179,0.3064215810798649,-781.6141536618788,-6.76210158369156,O=C(NCCc1cccc2ccccc12)C1CCC1,train_full
570,181,1,data/moses_wfns/archive_0_0_1.tar,-788.3746276998985,-78.8805536047156,1399.2323016042078,-3846.113768042497,1737.4166554161718,1.5916384515937416,-2.661597005441416,1.27804523246762,3.3542228900595807,0.0195385618859486,0.0079622155968891,0.0077816481899654,-0.2763364778314344,0.0240927336802088,0.3004292115116432,-781.6141536618788,-6.760474038019652,O=C(NCCc1cccc2ccccc12)C1CCC1,test_full_conformations
571,181,2,data/moses_wfns/archive_0_0_1.tar,-788.3858262273635,-78.87242318163587,1355.971172232479,-3759.0034304936585,1693.5472047968472,-2.161543533561159,2.945192811875248,0.4980363863438482,3.687068129113447,0.0276139283481019,0.0059870016022367,0.005419106764729,-0.2899675692134333,0.0097620369636361,0.2997296061770694,-781.6141536618788,-6.771672565484664,O=C(NCCc1cccc2ccccc12)C1CCC1,train_full
572,182,0,data/moses_wfns/archive_0_0_1.tar,-1042.76846001277,-101.05586333891594,1881.085151144709,-5149.122673295832,2326.3522480154293,-6.714268130174067,-2.6827021597168,-2.2016023004143745,7.558130727290326,0.0122066525749851,0.0044823173266417,0.0033986931477688,-0.3005841513852646,-0.0174184213194026,0.283165730065862,-1035.4919393004084,-7.276520712361616,O=c1c2ccccc2c(-c2cccnc2)nn1CCn1ccnc1,test_full_conformations
573,182,1,data/moses_wfns/archive_0_0_1.tar,-1042.781919801564,-101.1042616859119,1994.1097783848093,-5375.866628592081,2440.1101611948257,0.575153795488747,-0.6059811907523636,-1.0094877361226413,1.310374214258194,0.0094465811128795,0.0084058114649032,0.0050589182512194,-0.3003258044163502,-0.0061363067921695,0.2941894976241807,-1035.4919393004084,-7.289980501155696,O=c1c2ccccc2c(-c2cccnc2)nn1CCn1ccnc1,train_full
574,182,2,data/moses_wfns/archive_0_0_1.tar,-1042.7746353640991,-101.05547130270192,1984.63207260814,-5356.781207721426,2430.460296199272,-2.2678032521945446,-2.232150935392369,2.56546820010568,4.087426632343467,0.0091876919384657,0.0082970975277331,0.0050595882584854,-0.2958260008180905,-0.0092289411779612,0.2865970596401293,-1035.4919393004084,-7.282696063690764,O=c1c2ccccc2c(-c2cccnc2)nn1CCn1ccnc1,train_full
575,183,0,data/moses_wfns/archive_0_0_1.tar,-818.0090207733388,-79.70082587612019,1353.4305307497243,-3795.145234624916,1703.4279856619085,-1.643085374563754,-0.1541373931155471,-1.5569189656927964,2.268806855991866,0.0189726072899669,0.0100679970507814,0.0070444985822288,-0.2958048711141737,-0.0060847959772655,0.2897200751369082,-812.047825091498,-5.961195681840763,CCn1nc(-c2cccnc2)c2ccccc2c1=O,test_full_structures
576,184,0,data/moses_wfns/archive_0_0_1.tar,-1408.8212166849742,-112.7119673976308,1963.0001077274544,-5822.822915527359,2563.7415758757734,1.614487604810036,-4.952902606555658,3.613061992097226,6.339718559593056,0.0100785718257641,0.0063915757088607,0.0043120805373967,-0.3114318237504376,-0.0196912719129534,0.2917405518374842,-1402.1550882654285,-6.666128419545657,Cc1nnc2n1-c1ccc(Cl)cc1C(c1cccc(O)c1)=NC2,train_full
577,184,1,data/moses_wfns/archive_0_0_1.tar,-1408.8299785082586,-112.69538224307486,1961.0369104365168,-5818.766849184882,2561.6233023685245,0.716585335821114,-3.866878341569834,2.0607672380555293,4.439932911819586,0.009992159818192,0.0063852427486236,0.0042993576685357,-0.3147293274962426,-0.0200498885809652,0.2946794389152774,-1402.1550882654285,-6.674890242830088,Cc1nnc2n1-c1ccc(Cl)cc1C(c1cccc(O)c1)=NC2,train_full
578,184,2,data/moses_wfns/archive_0_0_1.tar,-1408.8281939666565,-112.67940192321224,1968.249650218928,-5833.276818571257,2568.9062930557848,1.293609276221422,-0.2295249186341513,5.720299713851506,5.869236361238976,0.0102103093439757,0.0064525368373176,0.0045484081208675,-0.3136791775584684,-0.0196877327813962,0.2939914447770722,-1402.1550882654285,-6.673105701227996,Cc1nnc2n1-c1ccc(Cl)cc1C(c1cccc(O)c1)=NC2,test_full_conformations
579,184,3,data/moses_wfns/archive_0_0_1.tar,-1408.8264838411992,-112.71053816684758,1973.9779158276224,-5844.797929299024,2574.732087152676,1.0250014520533746,-1.8425621755489003,4.037657412969527,4.555034657605011,0.0103285998935311,0.006448513141352,0.0046217879064706,-0.3106060092872729,-0.0180370693891292,0.2925689398981437,-1402.1550882654285,-6.671395575770703,Cc1nnc2n1-c1ccc(Cl)cc1C(c1cccc(O)c1)=NC2,train_full
580,185,0,data/moses_wfns/archive_0_0_1.tar,-1087.7839536317535,-103.62007479099502,1899.9659371709,-5251.645849574752,2367.547239344984,-0.8336235877323369,0.2883428718013388,0.1409319008163022,0.893270226980656,0.0110900315503066,0.0042612024191846,0.0032874295931416,-0.331652023679528,-0.0160472893688313,0.3156047343106967,-1080.583993972044,-7.199959659709521,N#Cc1ccc(C(C(O)Cc2ccc(F)cc2)n2cncn2)cc1,train_full
581,185,1,data/moses_wfns/archive_0_0_1.tar,-1087.8037220714907,-103.60891634756972,1896.379919103388,-5244.755224018719,2364.211100416827,-4.4593095871080575,0.9766356430827764,-0.6790929753477049,4.615238503282376,0.0097891379174096,0.0044806372526708,0.0033666632250215,-0.3334433628194448,-0.001682980576118,0.3317603822433268,-1080.583993972044,-7.219728099446684,N#Cc1ccc(C(C(O)Cc2ccc(F)cc2)n2cncn2)cc1,train_full
582,185,2,data/moses_wfns/archive_0_0_1.tar,-1087.8105843820686,-103.596397034514,1896.597788777204,-5245.247617303109,2364.466619550758,-2.4013803150118824,1.4059596252946087,3.681709775805527,4.6150121081690685,0.0126974935089225,0.0038612689309747,0.0032351174861609,-0.3403202709311487,0.0021469593637091,0.3424672302948578,-1080.583993972044,-7.226590410024528,N#Cc1ccc(C(C(O)Cc2ccc(F)cc2)n2cncn2)cc1,train_full
583,185,3,data/moses_wfns/archive_0_0_1.tar,-1087.8070938820754,-103.54732903880756,1899.858026264964,-5251.725399770777,2367.6389553521863,-0.2891422650587112,-0.4387859170601302,4.2428060915509445,4.275223954479506,0.0096249046580083,0.0046458017692879,0.0034114835516564,-0.3338066548667161,-0.0064845451111405,0.3273221097555756,-1080.583993972044,-7.223099910031351,N#Cc1ccc(C(C(O)Cc2ccc(F)cc2)n2cncn2)cc1,train_full
584,185,4,data/moses_wfns/archive_0_0_1.tar,-1087.7874703498048,-103.60043907685088,1910.8327712821788,-5274.164411349431,2379.175748829696,-1.4086321749482809,-0.6199675331826264,4.002825088336396,4.288497759625781,0.0144492361352875,0.0037953729082661,0.0032484714458396,-0.3274602604493225,0.0009050149271435,0.328365275376466,-1080.583993972044,-7.203476377760808,N#Cc1ccc(C(C(O)Cc2ccc(F)cc2)n2cncn2)cc1,train_full
585,185,5,data/moses_wfns/archive_0_0_1.tar,-1087.5380712314668,-103.48408079137278,1969.215862513382,-5389.906800298867,2436.671418229161,-3.22559790764428,0.0698406760957511,4.099629231259087,5.216926242111406,0.0094749556972802,0.0058404036829718,0.0044822951643504,-0.31092735660299,-0.0157084740095774,0.2952188825934125,-1080.583993972044,-6.954077259422775,N#Cc1ccc(C(C(O)Cc2ccc(F)cc2)n2cncn2)cc1,train_full
586,185,6,data/moses_wfns/archive_0_0_1.tar,-1087.793903905663,-103.57644671486324,1951.959983782572,-5356.381839594822,2420.237084860199,-4.905026917399352,-0.5424049921558044,0.0863342188945466,4.935680888517799,0.0101996857456001,0.005245337521567,0.0040540895835286,-0.3340836110664794,0.0032534179373341,0.3373370290038134,-1080.583993972044,-7.209909933618974,N#Cc1ccc(C(C(O)Cc2ccc(F)cc2)n2cncn2)cc1,test_full_conformations
587,186,0,data/moses_wfns/archive_0_0_1.tar,-1201.361717578309,-92.57384070046535,1272.4206721637008,-4167.041271797278,1785.849773133731,0.8858413523593276,-4.654012943746225,-1.0419443893629352,4.850793697183184,0.0471635077105062,0.0040181681376698,0.0037333069638274,-0.3012717379367559,0.0340529261792515,0.3353246641160073,-1195.9377828047916,-5.423934773517431,Cc1ccc(NC(=O)Nc2cccnc2)cc1Cl,train_full
588,187,0,data/moses_wfns/archive_0_0_1.tar,-1152.1238754853562,-110.74517758172315,2082.4983604737413,-5699.62203532299,2575.7716964427973,-1.4240146711206942,-1.2767224130550456,1.9527696029853563,2.733339903105295,0.0247441372731052,0.0023456921616623,0.0021855548183271,-0.2926068148793125,0.0045041790296275,0.29711099390894,-1144.5367689651705,-7.587106520185898,Nc1nc2c(cnn2CCc2ccccc2)c2nc(-c3ccco3)nn12,test_full_conformations
589,187,1,data/moses_wfns/archive_0_0_1.tar,-1152.1275012534506,-110.75719861394138,2163.033948364124,-5861.046923137397,2656.672195257529,0.5440091389331712,-2.7684643051315105,0.137112203664194,2.8247372105071578,0.015201038834595,0.0031976900622125,0.0028290345516544,-0.2921199450538841,-0.0014358778810787,0.2906840671728054,-1144.5367689651705,-7.590732288280378,Nc1nc2c(cnn2CCc2ccccc2)c2nc(-c3ccco3)nn12,train_full
590,187,2,data/moses_wfns/archive_0_0_1.tar,-1152.1207667045364,-110.72989233466966,2229.3501017712265,-5993.734775077902,2723.0256565632617,-1.370085242242041,-1.19944586581601,-2.970327068971886,3.484056092071376,0.0148615407433331,0.0038449730667441,0.0033905988496714,-0.2888887537368069,0.0008499646517355,0.2897387183885423,-1144.5367689651705,-7.583997739366168,Nc1nc2c(cnn2CCc2ccccc2)c2nc(-c3ccco3)nn12,train_full
591,187,3,data/moses_wfns/archive_0_0_1.tar,-1152.1279135382968,-110.7658971293238,2141.866177028232,-5818.743399314733,2635.543693912006,0.0086656289063073,-1.9730443677023524,2.1978901673369484,2.953591095213208,0.0162946516412481,0.0029813435631736,0.0026910281691242,-0.2921901016430513,0.0078397368770515,0.3000298385201028,-1144.5367689651705,-7.591144573126485,Nc1nc2c(cnn2CCc2ccccc2)c2nc(-c3ccco3)nn12,train_full
592,187,4,data/moses_wfns/archive_0_0_1.tar,-1152.1440719582793,-110.73041496132838,2219.057854868632,-5973.203636759396,2712.763205977154,-0.6850124084650115,0.5056907098473677,3.238833924073767,3.348881944994187,0.0150406894818792,0.0037625721640952,0.0033715805152429,-0.2822780393736008,0.0169337711436927,0.2992118105172935,-1144.5367689651705,-7.607302993108988,Nc1nc2c(cnn2CCc2ccccc2)c2nc(-c3ccco3)nn12,train_full
593,188,0,data/moses_wfns/archive_0_0_1.tar,-1029.0135207236094,-95.13783697982812,1699.9673216240371,-4781.805516886512,2147.9845220154184,3.295862934927716,2.591981405081176,-4.354069229766263,6.044749700997908,0.01932130349005,0.0074004075699977,0.0065125662916298,-0.3109701206057995,-0.00203117575844,0.3089389448473595,-1022.8614778285338,-6.152042895075624,CC(=O)Oc1ccccc1C(=O)Oc1c(C)occc1=O,test_full_conformations
594,188,1,data/moses_wfns/archive_0_0_1.tar,-1029.0252808424768,-95.1601102711055,1698.7571535872448,-4779.302473017457,2146.702187705809,0.0269943692910493,-3.2891637660002004,5.0126327615807575,5.995482814420768,0.019530940352233,0.0073371726635093,0.0064906448363147,-0.3147076847056209,0.0004112471679047,0.3151189318735256,-1022.8614778285338,-6.163803013943038,CC(=O)Oc1ccccc1C(=O)Oc1c(C)occc1=O,train_full
595,189,0,data/moses_wfns/archive_0_0_1.tar,-932.626782951546,-88.84090355536607,1573.2895671476836,-4391.515904391028,1974.460903891956,-2.110871372849626,6.4373593616847975,0.4354648013589555,6.788593602316283,0.0139960380615624,0.0120123927014912,0.0064928887047567,-0.2964296939656956,-0.0394843449225415,0.2569453490431541,-926.5425772752352,-6.084205676310944,O=C1c2ccccc2-c2c3c(cc4ccnc1c24)OCO3,train_full
596,190,0,data/moses_wfns/archive_0_0_1.tar,-1004.6972581031778,-97.15713454440052,1766.5947063319877,-4869.252559088112,2195.145435266368,-10.36104291487418,2.5665410771397927,0.9211315389892344,10.713861427918088,0.0221502470263113,0.0037102008691389,0.0034802029532546,-0.3059115933440939,-0.030944674458314,0.2749669188857799,-997.6938399579368,-7.003418145241085,CCN(C(C)=O)c1cccc(-c2ccnc3c(C#N)cnn23)c1,test_full_conformations
597,190,1,data/moses_wfns/archive_0_0_1.tar,-1004.69079147194,-97.14493521268558,1761.7717118752032,-4859.787523661024,2190.4973287380126,-6.279399057276303,-0.534918453728142,2.830402324699221,6.908557562351507,0.0199351822307017,0.0038050092832402,0.0035964400704879,-0.3122171050662402,-0.0150686200937439,0.2971484849724963,-997.6938399579368,-6.996951514003399,CCN(C(C)=O)c1cccc(-c2ccnc3c(C#N)cnn23)c1,train_full
598,190,2,data/moses_wfns/archive_0_0_1.tar,-1004.7036552239867,-97.17029099497285,1780.8451278797793,-4897.404007018676,2209.0537375427,-4.726456096977545,1.5225367236341512,-3.4289662356857646,6.034510316251338,0.0179657991590909,0.0041980195429332,0.0040236691989395,-0.3216367112186524,-0.0174035545166658,0.3042331567019866,-997.6938399579368,-7.009815266050055,CCN(C(C)=O)c1cccc(-c2ccnc3c(C#N)cnn23)c1,train_full
599,190,3,data/moses_wfns/archive_0_0_1.tar,-1004.7020687597386,-97.1419170210202,1771.7775642065444,-4879.915698257437,2200.6055113285265,-8.264206980323214,1.559782178037425,-1.840888536255313,8.609233883422052,0.0160236611809057,0.0043488685789489,0.0037581058963457,-0.3071199345037499,-0.031591092154086,0.2755288423496639,-997.6938399579368,-7.00822880180192,CCN(C(C)=O)c1cccc(-c2ccnc3c(C#N)cnn23)c1,train_full
600,190,4,data/moses_wfns/archive_0_0_1.tar,-1004.698228372978,-97.1393996907008,1774.0717913591866,-4884.604789665795,2203.0018432054694,-7.514655485696844,1.8553413929102165,7.713034783096103,10.92717915649826,0.017253914270747,0.0041019930466828,0.0038574463150381,-0.3095670247308213,-0.011885673477751,0.2976813512530703,-997.6938399579368,-7.004388415041376,CCN(C(C)=O)c1cccc(-c2ccnc3c(C#N)cnn23)c1,train_full
601,190,5,data/moses_wfns/archive_0_0_1.tar,-1004.7012194272038,-97.20327538079852,1782.2267968046226,-4899.957720136037,2210.261213772153,-5.667939653634686,-1.17617978254733,-5.185665146778177,7.771747667843283,0.0160049753372228,0.0045007752826939,0.0038702406609586,-0.3127634561048426,-0.0413105830677783,0.2714528730370643,-997.6938399579368,-7.007379469267107,CCN(C(C)=O)c1cccc(-c2ccnc3c(C#N)cnn23)c1,train_full
602,190,6,data/moses_wfns/archive_0_0_1.tar,-1004.692892027054,-97.15774161871272,1785.6664775987,-4907.568535126095,2214.394521622764,-7.082731986785386,5.330900475441008,1.844628849859876,9.054625771914894,0.015299245502692,0.0046783274641401,0.003983132002939,-0.3064784574688085,-0.0333410738286224,0.2731373836401861,-997.6938399579368,-6.999052069117397,CCN(C(C)=O)c1cccc(-c2ccnc3c(C#N)cnn23)c1,train_full
603,191,0,data/moses_wfns/archive_0_0_1.tar,-1392.0378206038451,-109.32874758061224,1724.0726115437176,-5328.277161571439,2321.519619750261,-4.765620463334882,-2.212586223185335,2.7151051055460864,5.9142600492156365,0.0180256973135575,0.0034388904984776,0.0029476522078756,-0.2889538856257165,-0.0016840408127792,0.2872698448129373,-1385.699211377746,-6.338609226099152,CCOc1cc(CNc2cn[nH]c(=O)c2Cl)ccc1OC,train_full
604,191,1,data/moses_wfns/archive_0_0_1.tar,-1392.0379604905431,-109.29925320125636,1733.1800423386087,-5346.423530998436,2330.5281094366187,-3.4011686681220348,3.75161912306019,-2.421447707291854,5.613020875845279,0.0174169925271182,0.0037589251628972,0.0031610424692049,-0.2870423660996515,-0.0054579775675383,0.2815843885321132,-1385.699211377746,-6.338749112797132,CCOc1cc(CNc2cn[nH]c(=O)c2Cl)ccc1OC,train_full
605,191,2,data/moses_wfns/archive_0_0_1.tar,-1392.0308674860414,-109.29334969596178,1867.48725955728,-5615.499743769518,2465.3053016185127,-2.010715852033464,4.974133065145511,-0.5522859402711899,5.39351441522258,0.0172362732274455,0.0054860665028448,0.0050798319573053,-0.2860860066722292,-0.00526942578248,0.2808165808897492,-1385.699211377746,-6.33165610829542,CCOc1cc(CNc2cn[nH]c(=O)c2Cl)ccc1OC,train_full