,MOSES id,CONFORMER id,archive name,DFT TOTAL ENERGY,DFT XC ENERGY,DFT NUCLEAR REPULSION ENERGY,DFT ONE-ELECTRON ENERGY,DFT TWO-ELECTRON ENERGY,DFT DIPOLE X,DFT DIPOLE Y,DFT DIPOLE Z,DFT TOTAL DIPOLE,DFT ROT CONSTANT A,DFT ROT CONSTANT B,DFT ROT CONSTANT C,DFT HOMO,DFT LUMO,DFT HOMO-LUMO GAP,DFT ATOMIC ENERGY,DFT FORMATION ENERGY,SMILES,SPLITS
420,124,1,data/moses_wfns/archive_0_0_1.tar,-803.2210857484333,-79.23706071483043,1323.5946337861233,-3715.072519833455,1667.5187529183834,-2.2924024742451707,1.5885370760590989,0.278600926305516,2.8028873723498173,0.0280416729807933,0.0058212133299769,0.0052611586025931,-0.3172810395106979,-0.0041398864868147,0.3131411530238832,-796.8309893766884,-6.390096371744903,O=C(NC1CCc2ccccc2C1)c1ccncc1,train_full
421,124,2,data/moses_wfns/archive_0_0_1.tar,-803.2333935080674,-79.1970010863273,1330.522555906615,-3728.935010395682,1674.4014432694278,-2.7455201889073297,-0.7153580764008381,-1.268160310435208,3.1077079750408934,0.0272466927917585,0.0060229333547768,0.0055365764181657,-0.3252535013397698,-0.0063596412142385,0.3188938601255313,-796.8309893766884,-6.402404131378944,O=C(NC1CCc2ccccc2C1)c1ccncc1,train_full
422,125,0,data/moses_wfns/archive_0_0_1.tar,-985.6812630713392,-92.2286609254406,1688.457965427537,-4699.390214089888,2117.5087346181563,-2.820580521391712,3.315338179187361,1.147412386264706,4.501521620983884,0.0301821230167177,0.0066190218545426,0.005760870990629,-0.2886621870939763,0.0366214395321256,0.3252836266261019,-979.6134559670857,-6.067807104253575,CC1(O)C(O)C(CO)OC1n1ccc2c(N)ncnc21,train_full
423,125,1,data/moses_wfns/archive_0_0_1.tar,-985.6719630966454,-92.21394822337092,1704.957292593847,-4733.02062421093,2134.634150753153,-0.5414522158383563,-1.7628514228174474,-0.9448142835561376,2.0720737610851265,0.0220548157329175,0.0079148543911023,0.0064857415659944,-0.2812178987029657,0.0398932559342061,0.3211111546371718,-979.6134559670857,-6.058507129559757,CC1(O)C(O)C(CO)OC1n1ccc2c(N)ncnc21,train_full
424,125,2,data/moses_wfns/archive_0_0_1.tar,-985.6993079113907,-92.16942133265356,1684.1303991978184,-4691.211685904213,2113.580690673955,0.8425671592628486,-1.200564674718992,1.833286852919041,2.34781081885598,0.0221307040856904,0.0073796104480781,0.0063547927918361,-0.2866816814603131,0.0301366205581899,0.316818302018503,-979.6134559670857,-6.085851944305091,CC1(O)C(O)C(CO)OC1n1ccc2c(N)ncnc21,test_full_conformations
425,125,3,data/moses_wfns/archive_0_0_1.tar,-985.7179425890664,-92.15615145735056,1692.1621585338503,-4707.207663692134,2121.512799362008,-3.928455259973039,4.213576621022021,2.064574992732537,6.119596275200656,0.0214162317352202,0.0075410501046698,0.0064512932323583,-0.2851933287420595,0.0338542875656278,0.3190476163076873,-979.6134559670857,-6.1044866219807545,CC1(O)C(O)C(CO)OC1n1ccc2c(N)ncnc21,train_full
426,126,0,data/moses_wfns/archive_0_0_1.tar,-1033.1559704787542,-90.88630865542255,1482.187187166188,-4363.155729756689,1938.7186014272816,-7.529291651121297,-1.4041900459193168,-1.0960329156557456,7.73713581404027,0.0310293452271231,0.0080621461891022,0.0069373692589809,-0.319473416418616,0.013941890171671,0.333415306590287,-1028.3649858312508,-4.790984647503365,CC1(F)OC(n2cc(F)c(=O)[nH]c2=O)C(O)C1O,test_full_structures
427,126,1,data/moses_wfns/archive_0_0_1.tar,-1033.1653745525011,-90.88539848996272,1471.7517465895492,-4342.128125753126,1928.11661637533,-3.9755573770145856,-2.435422687995159,2.407411391928748,5.247091550290024,0.0291144168346246,0.0079477423377593,0.0068482655944612,-0.3319204235498144,-0.0016379164803548,0.3302825070694596,-1028.3649858312508,-4.800388721250329,CC1(F)OC(n2cc(F)c(=O)[nH]c2=O)C(O)C1O,test_full_structures
428,127,0,data/moses_wfns/archive_0_0_1.tar,-894.4129000687159,-86.0871255743974,1392.1081124504342,-3978.519694678533,1778.106719771965,4.109651783039568,-0.0305512645211928,1.372576758158108,4.332913351849996,0.0356770780814944,0.0039911881543855,0.0036001085880884,-0.2819040175291186,0.0150797282400974,0.296983745769216,-888.0294897067391,-6.3834103619767575,CC(=O)Nc1ccc(C(=O)Nc2ccccc2N)cc1,"train_large,train_full"
429,128,0,data/moses_wfns/archive_0_0_1.tar,-1102.8774801255615,-88.61757218346179,1361.3823629934045,-4207.657136719887,1832.0356810500032,2.895354400980049,0.6964929770978519,-3.023377304058916,4.243700024403201,0.0156071405742005,0.0112205887637374,0.007227930603793,-0.2944535505057292,0.0269064502278779,0.3213600007336071,-1097.2449754861225,-5.632504639439048,CSc1nc2ccccc2n1Cc1ccccn1,test_full_structures
430,128,1,data/moses_wfns/archive_0_0_1.tar,-1102.8690615165208,-88.60118399346815,1367.476609619251,-4219.752923631505,1838.0301143489048,5.575020453538201,-1.113409531525893,0.3645716539932388,5.696792635611494,0.0168943777437215,0.0108040135122347,0.0072744373571105,-0.2959502840752971,0.0190489056034713,0.3149991896787684,-1097.2449754861225,-5.624086030398303,CSc1nc2ccccc2n1Cc1ccccn1,test_full_structures
431,129,0,data/moses_wfns/archive_0_0_1.tar,-946.5075279435714,-87.98046199198004,1537.5946826190473,-4343.664332766446,1947.566469591736,3.854656584591908,1.492860697875905,2.078438966603835,4.626761176708552,0.0292979447471691,0.0077533087675122,0.0064355868361483,-0.301317514400998,0.0274566386315395,0.3287741530325375,-940.8103701078808,-5.697157835690518,Cn1c(=O)c2c(ncn2CC2OCCO2)n(C)c1=O,train_full
432,130,0,data/moses_wfns/archive_0_0_1.tar,-975.1240052087122,-96.38775806803976,1860.0195265699272,-5016.743462602411,2278.0201608953257,-5.157261847906163,-2.06085062497206,2.40198422321694,6.050948956560392,0.0110597151707997,0.0059582818979857,0.004137788488832,-0.2662009337518763,0.0267488264206497,0.292949760172526,-967.2601685283172,-7.863836680395025,Cc1ccc(-c2nc3ccc(C)cn3c2CC(=O)N(C)C)cc1,test_full_conformations
433,130,1,data/moses_wfns/archive_0_0_1.tar,-975.1150339183868,-96.41541372052708,1859.336579644122,-5014.829256760684,2276.8260955405617,-2.2683187598205405,-0.6456817600741627,-4.28049653938776,4.887210406270315,0.0119222703764518,0.0055908707075964,0.0041079764039327,-0.2659316083983515,0.0285520760437697,0.2944836844421212,-967.2601685283172,-7.854865390069563,Cc1ccc(-c2nc3ccc(C)cn3c2CC(=O)N(C)C)cc1,train_full
434,131,0,data/moses_wfns/archive_0_0_1.tar,-1531.4591567899745,-121.75649025768293,2085.664150692131,-6245.363344285855,2750.021436226564,3.5264832675333424,-1.944368512335812,-3.4635243308447263,5.311558522534514,0.0077061543842735,0.0058301083982147,0.0034940632519922,-0.316729393268951,-0.0045607564549502,0.3121686368140008,-1525.1338965659013,-6.32526022407319,CC(=O)c1ccc(NS(C)(=O)=O)c(Oc2ccc(F)cc2F)c1,test_full_conformations
435,131,1,data/moses_wfns/archive_0_0_1.tar,-1531.4799157125512,-121.75776570450638,2107.770831819543,-6289.497886724846,2772.030775325308,1.3134333063726418,-1.2036862143612073,-2.614284089854293,3.163613259454681,0.0087153201362841,0.0058669150371439,0.0037986231113586,-0.3340430939473272,-0.0135725494750203,0.3204705444723069,-1525.1338965659013,-6.346019146649951,CC(=O)c1ccc(NS(C)(=O)=O)c(Oc2ccc(F)cc2F)c1,train_full
436,132,0,data/moses_wfns/archive_0_0_1.tar,-1079.1530085947172,-100.94263890245232,1893.64480771426,-5232.812047055763,2360.985769150111,4.571142782248959,-2.0445521558879327,1.893812328966498,5.3536963857878845,0.0238525250988153,0.0046746883352071,0.0042372696901348,-0.2946012354914315,0.028665206234392,0.3232664417258235,-1072.4364634003043,-6.716545194412902,Cn1c(=O)c2c(ncn2CC(=O)N2CCOCC2)n(C)c1=O,test_full_conformations
437,132,1,data/moses_wfns/archive_0_0_1.tar,-1079.167928434911,-100.9064544018874,1882.798366133485,-5211.025914344016,2349.994804841673,3.814778832873596,2.721423312013412,-1.4326846051892124,4.900129341645653,0.0242371513861628,0.0045306324854457,0.0041403220078567,-0.2953830729166251,0.0266482170301665,0.3220312899467916,-1072.4364634003043,-6.731465034606572,Cn1c(=O)c2c(ncn2CC(=O)N2CCOCC2)n(C)c1=O,train_full
438,133,0,data/moses_wfns/archive_0_0_1.tar,-1368.7541971910848,-111.37450763526428,1948.9217317653315,-5743.098602476602,2536.825735617462,-0.770476788580643,-2.594714889894042,0.6637970770780126,2.786899065469847,0.0202925620724243,0.0039923772394519,0.0034343772701589,-0.3063638789244951,-0.0137219658819802,0.2926419130425149,-1361.9830821575856,-6.7711150334992,CN1Cc2c(C(=O)OC(C)(C)C)ncn2-c2ccsc2C1=O,"train_large,train_full"
439,134,0,data/moses_wfns/archive_0_0_1.tar,-1061.6112696623231,-96.05403853572663,1675.6943066564452,-4782.398078888946,2141.1703842546526,-4.487191044279697,-0.425036166794728,8.934590337949803,10.007119651424851,0.0215446490443761,0.0068494552541919,0.0056936122872888,-0.2751667004374513,0.0388503044230763,0.3140170048605276,-1056.1441685850727,-5.467101077250391,Nc1nc2c(ncn2C2OC(CO)C(O)C2F)c(=O)[nH]1,test_full_conformations
440,134,1,data/moses_wfns/archive_0_0_1.tar,-1061.5906858590697,-96.10986665673892,1684.2995874967369,-4799.526314494001,2149.768763738261,-2.101718869266132,-3.994888020785332,9.91120660761048,10.890746940535582,0.0260460691563966,0.0065111547801541,0.00571428884605,-0.2798939533171557,0.0273816595620766,0.3072756128792323,-1056.1441685850727,-5.44651727399696,Nc1nc2c(ncn2C2OC(CO)C(O)C2F)c(=O)[nH]1,train_full
441,135,0,data/moses_wfns/archive_0_0_1.tar,-1042.9687989926372,-99.9903369721085,1874.58843553494,-5142.979468325839,2325.442159993738,-3.4934454108233712,1.7724691911792447,-3.377293122610048,5.172225508242231,0.0168005404843201,0.0044813976096163,0.0041031907958416,-0.2834001363386085,-0.003955325497666,0.2794448108409425,-1035.877405230705,-7.091393761932068,COc1ccc(O)cc1Cc1cnc2nc(N)nc(N)c2c1C,test_full_conformations
442,135,1,data/moses_wfns/archive_0_0_1.tar,-1042.95273222665,-99.96541614591636,1860.398135905893,-5114.3368951990815,2310.9812894429674,-5.182947911242296,-2.1984560927563344,-3.1585557128372725,6.455434333453118,0.0161688579422997,0.0044496623956497,0.0038255579131339,-0.2867190638016396,-0.0058329476446425,0.2808861161569971,-1035.877405230705,-7.075326995945034,COc1ccc(O)cc1Cc1cnc2nc(N)nc(N)c2c1C,train_full
443,135,2,data/moses_wfns/archive_0_0_1.tar,-1042.9549911880897,-99.98725985975835,1874.4967266259937,-5142.67993428349,2325.245507204821,-2.931197594231973,4.074361129417885,2.0102758757905974,5.406805623113184,0.0166636922205289,0.0046057176641285,0.004187944430896,-0.2896864553287095,-0.0063099542789111,0.2833765010497984,-1035.877405230705,-7.077585957384372,COc1ccc(O)cc1Cc1cnc2nc(N)nc(N)c2c1C,train_full
444,135,3,data/moses_wfns/archive_0_0_1.tar,-1042.9515443698117,-99.99632185501372,1878.2016904010995,-5150.090815674055,2328.964238922455,-4.187052361131659,2.8504035147960187,0.8859066119886775,5.142085004857948,0.0165359320812611,0.0047871030179818,0.0040831116070164,-0.293537882670433,-0.0055117428605341,0.2880261398098989,-1035.877405230705,-7.074139139106592,COc1ccc(O)cc1Cc1cnc2nc(N)nc(N)c2c1C,train_full
445,135,4,data/moses_wfns/archive_0_0_1.tar,-1042.9683685572704,-99.9818978396382,1862.2773000656184,-5118.009985670684,2312.775898664552,-4.962008450599318,4.539144938531785,-1.9046124438196217,6.989485903696374,0.0168521113487079,0.0042541173277585,0.0040463580560086,-0.284260610712111,-0.0086133296637278,0.2756472810483832,-1035.877405230705,-7.090963326565316,COc1ccc(O)cc1Cc1cnc2nc(N)nc(N)c2c1C,train_full
446,135,5,data/moses_wfns/archive_0_0_1.tar,-1042.94854750208,-99.99788363491712,1889.904489018504,-5173.657316123783,2340.8322839082284,-1.9465402206295976,-0.6159723723216999,5.804666807749635,6.153259099288985,0.0168360656734132,0.0047390969103331,0.0043799763330757,-0.2948144478850655,-0.0060126726556861,0.2888017752293794,-1035.877405230705,-7.071142271375038,COc1ccc(O)cc1Cc1cnc2nc(N)nc(N)c2c1C,train_full
447,136,0,data/moses_wfns/archive_0_0_1.tar,-1346.791713745545,-107.39669734001428,1685.930825330397,-5193.861163621213,2268.557279151357,-3.640777260308085,2.22946768286801,-0.038995092929839,4.2693448941730985,0.0094126468652509,0.0053625567619376,0.0035281849907533,-0.2617588774630165,0.0641918168614016,0.3259506943244181,-1340.7922709769512,-5.999442768593781,CNC(=O)OCc1nc(SC)n(C)c1COC(=O)NC,train_full
448,136,1,data/moses_wfns/archive_0_0_1.tar,-1346.9429080775135,-107.29676350986942,1760.585527591161,-5345.122366260454,2344.9153325646,-3.679567034797771,2.1044796226351266,-0.4671080700513159,4.264532564626984,0.016052726167031,0.0053521862722984,0.0043034038800661,-0.27275983886744,0.0784034130157009,0.3511632518831409,-1340.7922709769512,-6.150637100562335,CNC(=O)OCc1nc(SC)n(C)c1COC(=O)NC,test_full_conformations
449,137,0,data/moses_wfns/archive_0_0_1.tar,-1104.7784355349424,-101.2707168668084,1845.7042059354808,-5175.085733278613,2325.90169367435,4.079782104929186,-0.382279414529732,0.9176356380747296,4.199144524630991,0.0172152067305104,0.0059067450167278,0.0052881413696411,-0.3363871028617838,0.0202298070121547,0.3566169098739385,-1098.7453166533608,-6.033118881581686,OC(Cn1cncn1)(Cn1cncn1)c1ccc(F)cc1F,train_full
450,137,1,data/moses_wfns/archive_0_0_1.tar,-1104.7711749214616,-101.2392607065036,1849.5479102824256,-5182.699339226516,2329.647595212527,1.9375366614789045,1.314380687686566,-1.5552973995392785,2.810799691858505,0.0131343555105574,0.0072157316366777,0.0051784809868487,-0.3396533062544131,0.0301492719406297,0.3698025781950428,-1098.7453166533608,-6.025858268100819,OC(Cn1cncn1)(Cn1cncn1)c1ccc(F)cc1F,train_full
451,137,2,data/moses_wfns/archive_0_0_1.tar,-1104.7875000305592,-101.30092915498544,1862.435859166756,-5208.366221679941,2342.4725605667086,2.022555226688151,-2.229032383597354,-0.5539569311534398,3.0604220777046742,0.0142611606984074,0.0070199907815822,0.0055871606314432,-0.3328611737016809,0.0294870425176004,0.3623482162192813,-1098.7453166533608,-6.042183377198398,OC(Cn1cncn1)(Cn1cncn1)c1ccc(F)cc1F,train_full
452,137,3,data/moses_wfns/archive_0_0_1.tar,-1104.7633707930486,-101.30718079655334,1870.3353598893227,-5224.159019306283,2350.396322967468,-0.0621814989080138,-1.3088115517047996,3.907358476871921,4.12120182513126,0.0121082224009583,0.0080186414088287,0.0055846720813615,-0.3370508183906837,0.0221702294363097,0.3592210478269934,-1098.7453166533608,-6.01805413968782,OC(Cn1cncn1)(Cn1cncn1)c1ccc(F)cc1F,train_full
453,137,4,data/moses_wfns/archive_0_0_1.tar,-1104.7499596035952,-101.25355214844365,1850.6249308894403,-5185.02619600969,2330.932658128472,2.146528877149885,-1.3204080661215412,-4.222660941534609,4.917512491969809,0.0105725879006608,0.0085876745326225,0.005506240050088,-0.3329604924247406,0.0292483039783106,0.3622087964030511,-1098.7453166533608,-6.004642950234484,OC(Cn1cncn1)(Cn1cncn1)c1ccc(F)cc1F,train_full
454,137,5,data/moses_wfns/archive_0_0_1.tar,-1104.7857568223849,-101.26638055257764,1853.33799849578,-5190.419488426491,2333.590222160285,2.588222620482913,-1.986012799287184,-1.267442121720428,3.4999360999914177,0.0142589043759239,0.0068486185087422,0.0054976370370752,-0.3322382283425109,0.0336740059806695,0.3659122343231804,-1098.7453166533608,-6.040440169023896,OC(Cn1cncn1)(Cn1cncn1)c1ccc(F)cc1F,test_full_conformations
455,138,0,data/moses_wfns/archive_0_0_1.tar,-1318.3406973686588,-98.0785873997517,1397.4024265710975,-4585.578615581278,1967.932814527854,2.835185831078068,-0.7579629132844071,1.890015589283179,3.490694114698946,0.0296567446810522,0.0065550274914446,0.0056447893240683,-0.3250399482777145,-0.0020960954682792,0.3229438528094353,-1313.7624878853312,-4.578209483327555,O=c1[nH]c(=O)n(C2CC(F)C(CO)O2)cc1Cl,train_full
456,138,1,data/moses_wfns/archive_0_0_1.tar,-1318.326555853833,-98.05155733703172,1394.339122392455,-4580.5358260128405,1965.9402939233,3.912171366696357,-3.900135342766815,-0.5763259513268769,5.554123881988094,0.0355895329486029,0.0061542107788123,0.0054896845214931,-0.3202697188638242,-0.0039475811480461,0.3163221377157781,-1313.7624878853312,-4.564067968501831,O=c1[nH]c(=O)n(C2CC(F)C(CO)O2)cc1Cl,test_full_conformations
457,139,0,data/moses_wfns/archive_0_0_1.tar,-857.3069287426006,-83.85349356561352,1356.3219415958024,-3853.8333103850064,1724.0803228819052,-2.140224614723707,2.430755676360495,5.34829592963217,6.252471824050712,0.035351732957475,0.0037349231553212,0.003600759938877,-0.2764057803286796,0.0076530792892491,0.2840588596179286,-850.8509109507029,-6.456017791897693,O=C(NCCc1c[nH]c2ccccc12)c1cccnc1,train_full
458,139,1,data/moses_wfns/archive_0_0_1.tar,-857.3100223892804,-83.86654564691774,1413.1621706309825,-3967.271988751848,1780.6901860256037,-2.626879270515796,-6.007702218697171,3.0009122948524176,7.210995441116358,0.0212784971724461,0.0054748338629679,0.0052111478612906,-0.2825075801548121,0.0099699533312991,0.2924775334861111,-850.8509109507029,-6.459111438577565,O=C(NCCc1c[nH]c2ccccc12)c1cccnc1,test_full_conformations
459,139,2,data/moses_wfns/archive_0_0_1.tar,-857.311960866971,-83.8446010973019,1406.5144932488572,-3954.0757299520233,1774.117488686199,-2.7386416332539527,1.4640541119298518,6.387185926032839,7.102095218438188,0.0220300251699221,0.0052703156396566,0.0050093956613234,-0.2843900042984768,0.0133608792753624,0.2977508835738391,-850.8509109507029,-6.461049916268166,O=C(NCCc1c[nH]c2ccccc12)c1cccnc1,train_full
460,140,0,data/moses_wfns/archive_0_0_1.tar,-1119.068505844592,-107.58660186126215,2147.502858929052,-5786.476247601679,2627.522418195654,-3.71687364677988,2.242461493170792,-0.154383344521495,4.343687082600009,0.016168254813154,0.0041933169078023,0.003419176277262,-0.2940477274723339,0.0019240641171495,0.2959717915894834,-1111.47360391565,-7.594901928941908,CC(C)n1c(=O)c2c(-c3noc(C4CC4)n3)ncn2c2ccccc21,train_full
461,141,0,data/moses_wfns/archive_0_0_1.tar,-1524.804831910569,-102.13582512585027,1361.6593694063847,-4797.402819339792,2013.092591888036,-1.4370939712523796,5.91701951155578,-2.405431632312091,6.546942822422489,0.0249066091482608,0.0076190035824161,0.0067282748101151,-0.3470382531603818,0.004888919901785,0.3519271730621668,-1520.4189526285047,-4.385879282064252,O=C1CCCN1S(=O)(=O)c1ccc(Cl)cc1,test_full_conformations
462,141,1,data/moses_wfns/archive_0_0_1.tar,-1524.8216740701328,-102.1291454406992,1355.6610626157767,-4785.791163257659,2007.4546671860423,-2.5340247441881414,4.464824308440623,-3.1226425509779543,6.008896238959212,0.0267408465442873,0.007019207379366,0.0067046898030411,-0.3498085095940013,-0.0006411243248281,0.3491673852691732,-1520.4189526285047,-4.402721441628046,O=C1CCCN1S(=O)(=O)c1ccc(Cl)cc1,train_full
463,141,2,data/moses_wfns/archive_0_0_1.tar,-1524.8081620461878,-102.11870547822464,1348.666045351622,-4771.668222336124,2000.3297735422257,0.9098953215245436,-2.991383868831738,-6.796178290275291,7.480930844490421,0.0293775490100023,0.0067743638195945,0.0062752009345049,-0.3402637269819707,-0.0113396653679371,0.3289240616140336,-1520.4189526285047,-4.389209417683105,O=C1CCCN1S(=O)(=O)c1ccc(Cl)cc1,train_full
464,142,0,data/moses_wfns/archive_0_0_1.tar,-1195.1600562571552,-110.05703900071364,1966.268806313522,-5539.852518902166,2488.510658486849,2.0781915510054523,-2.733478636104348,0.3339759572036478,3.449974712472459,0.0211233897612574,0.0025644807966609,0.0024641269907234,-0.2815454053266997,-0.0064967328684174,0.2750486724582823,-1187.9949120635897,-7.165144193565538,O=C(c1cccnc1)N1CCN(c2cccc(C(F)(F)F)c2)CC1,test_full_scaffolds
465,142,1,data/moses_wfns/archive_0_0_1.tar,-1195.1625079847568,-110.07097562050951,1962.4849488771888,-5532.008295062811,2484.461354858978,1.364537013145916,-1.0993271665945268,-6.062214444688986,6.310382353934959,0.0225178059496034,0.002541202614062,0.0023506109961424,-0.2869940078158565,-0.0038249768750087,0.2831690309408478,-1187.9949120635897,-7.167595921167049,O=C(c1cccnc1)N1CCN(c2cccc(C(F)(F)F)c2)CC1,test_full_scaffolds