,MOSES id,CONFORMER id,archive name,DFT TOTAL ENERGY,DFT XC ENERGY,DFT NUCLEAR REPULSION ENERGY,DFT ONE-ELECTRON ENERGY,DFT TWO-ELECTRON ENERGY,DFT DIPOLE X,DFT DIPOLE Y,DFT DIPOLE Z,DFT TOTAL DIPOLE,DFT ROT CONSTANT A,DFT ROT CONSTANT B,DFT ROT CONSTANT C,DFT HOMO,DFT LUMO,DFT HOMO-LUMO GAP,DFT ATOMIC ENERGY,DFT FORMATION ENERGY,SMILES,SPLITS
187,59,2,data/moses_wfns/archive_0_0_0.tar,-1070.0459808783432,-103.53285486995507,1960.623766095812,-5349.304384981741,2422.198775920695,-2.3422065493979347,0.1087991851510053,-1.4882690629580604,2.7771772695472943,0.0097658524605359,0.0044606029745815,0.0038303194791434,-0.2734091225927965,0.0463143151063307,0.3197234376991272,-1062.1886166345876,-7.857364243755683,OCCN(CCO)c1nc(-c2ccccc2)c(-c2ccccc2)o1,train_full
188,59,3,data/moses_wfns/archive_0_0_0.tar,-1070.0432119961608,-103.49166822484266,1964.919591979468,-5358.316951937009,2426.87687937708,1.4786482408792931,-0.2400256920770889,-1.1067703740226862,1.86251271510474,0.0099837964491311,0.0049151479325744,0.0035267193138064,-0.2673764296733206,0.0449144313623059,0.3122908610356265,-1062.1886166345876,-7.854595361573274,OCCN(CCO)c1nc(-c2ccccc2)c(-c2ccccc2)o1,train_full
189,59,4,data/moses_wfns/archive_0_0_0.tar,-1070.054449713676,-103.50698457089538,1980.2080716020112,-5389.253518270314,2442.530084147546,1.391007159197871,-1.713414945264396,-0.1057287072185856,2.2094954743391617,0.0111463283619383,0.0045828214514012,0.003617805743336,-0.2592582710911059,0.0511130197609723,0.3103712908520782,-1062.1886166345876,-7.865833079088588,OCCN(CCO)c1nc(-c2ccccc2)c(-c2ccccc2)o1,test_full_conformations
190,59,5,data/moses_wfns/archive_0_0_0.tar,-1070.0584551483273,-103.51680679218016,1970.491602028634,-5369.747832965897,2432.746154189955,-0.3282190793327593,-1.136523633128143,-0.2119028110825296,1.20179721003234,0.0102017827395641,0.0047912154140855,0.0036308588379924,-0.2582455469234231,0.0556200081642799,0.313865555087703,-1062.1886166345876,-7.869838513739751,OCCN(CCO)c1nc(-c2ccccc2)c(-c2ccccc2)o1,train_full
191,59,6,data/moses_wfns/archive_0_0_0.tar,-1070.0564900207903,-103.51279707971032,1979.496447186707,-5387.36664399345,2441.358835381256,0.4646635122255759,-2.1405345102769653,-2.6860814929105272,3.4659535420771155,0.0115361184130074,0.0045353975865391,0.0035993751469016,-0.2600733708833032,0.0443705103006648,0.304443881183968,-1062.1886166345876,-7.867873386202973,OCCN(CCO)c1nc(-c2ccccc2)c(-c2ccccc2)o1,train_full
192,60,0,data/moses_wfns/archive_0_0_0.tar,-1110.4424781583073,-89.05886098541805,1443.010939594728,-4382.36256145417,1917.9960291075104,2.667065350953884,2.8254669410065243,-4.413374430836544,5.8799978646034665,0.0203353894917363,0.0085126833590349,0.0070425433993786,-0.3163808955938778,0.0155913330562181,0.3319722286500959,-1104.3753487428353,-6.067129415471982,CCCN(CCC)S(=O)(=O)c1ccc(C)cc1,train_full
193,60,1,data/moses_wfns/archive_0_0_0.tar,-1110.449486841154,-89.07252155900544,1452.000957579781,-4400.02254755258,1926.673736081471,1.648401966366796,2.137131064338483,6.265233308977724,6.821855073571002,0.0179161955760082,0.0087596755399743,0.0077382488076869,-0.3258048011227159,0.0210624135227665,0.3468672146454824,-1104.3753487428353,-6.074138098318599,CCCN(CCC)S(=O)(=O)c1ccc(C)cc1,train_full
194,60,2,data/moses_wfns/archive_0_0_0.tar,-1110.4524258530423,-89.05840309018865,1454.8144450548673,-4405.648312414617,1929.46935511736,1.3262028390259062,1.8376681243336976,-6.534216694049337,6.916055661301863,0.0177755585502045,0.0089404490678737,0.0080921389750901,-0.3271202704872644,0.0199654222509218,0.3470856927381862,-1104.3753487428353,-6.0770771102070285,CCCN(CCC)S(=O)(=O)c1ccc(C)cc1,train_full
195,60,3,data/moses_wfns/archive_0_0_0.tar,-1110.4429403556558,-89.07565479097711,1475.2266214462609,-4446.615467764811,1950.0525189433804,2.111892604105708,-2.0151671313219905,6.194588418690908,6.847913157701141,0.0167420161435039,0.0096914698027594,0.0087461821504655,-0.3156167132465604,0.0124464387711889,0.3280631520177492,-1104.3753487428353,-6.067591612820479,CCCN(CCC)S(=O)(=O)c1ccc(C)cc1,test_full_conformations
196,61,0,data/moses_wfns/archive_0_0_0.tar,-996.5764856123292,-95.65930773639504,1696.9225980177282,-4726.093204407656,2128.28484768755,3.423343682089857,3.960700789686421,-1.5042646057468037,5.4469482019962125,0.0216797074268209,0.0037564496752342,0.0035507362299726,-0.3095790045195126,0.0441755707003798,0.3537545752198924,-989.3173792091304,-7.259106403198643,O=C1OCC(Cc2cccc(O)c2)C1Cc1cccc(O)c1,train_full
197,61,1,data/moses_wfns/archive_0_0_0.tar,-996.5765906689796,-95.72593909480634,1704.8440013273232,-4742.1015746906805,2136.4383574534872,3.997390232158124,3.047831661637297,3.761732346340249,6.278458150799004,0.0231376421872535,0.0037612894661982,0.0035282402421378,-0.3096562422933717,0.0485612332479719,0.3582174755413436,-989.3173792091304,-7.259211459849212,O=C1OCC(Cc2cccc(O)c2)C1Cc1cccc(O)c1,train_full
198,61,2,data/moses_wfns/archive_0_0_0.tar,-996.5750234798766,-95.66946511029838,1754.8063273078765,-4842.090263829196,2186.410580387577,3.717003128819307,-0.6216673053802133,1.6574724670458856,4.117013174286231,0.0138215446148331,0.0056867992020864,0.0045643047918287,-0.3092383020812367,0.0540656354294641,0.3633039375107008,-989.3173792091304,-7.257644270746027,O=C1OCC(Cc2cccc(O)c2)C1Cc1cccc(O)c1,train_full
199,61,3,data/moses_wfns/archive_0_0_0.tar,-996.5773291419704,-95.68152297925354,1732.1064843924185,-4795.956296540917,2162.986882113512,2.283647922875241,5.848501651874058,-0.1447280474731862,6.280204265416164,0.0128151051488587,0.0055835351035903,0.0042331791777703,-0.324338345032438,0.0426324161314751,0.3669707611639131,-989.3173792091304,-7.259949932839959,O=C1OCC(Cc2cccc(O)c2)C1Cc1cccc(O)c1,train_full
200,61,4,data/moses_wfns/archive_0_0_0.tar,-996.5899433437374,-95.6659078138328,1713.883624905374,-4759.704470986024,2144.9294794665047,3.31862362156304,3.882959893510536,-1.108968561349675,5.226896932814872,0.0236329900115593,0.0037918648826903,0.0035910914232335,-0.2972894367687864,0.0474655706762138,0.3447550074450002,-989.3173792091304,-7.27256413460691,O=C1OCC(Cc2cccc(O)c2)C1Cc1cccc(O)c1,train_full
201,61,5,data/moses_wfns/archive_0_0_0.tar,-996.5728661545504,-95.68899512432532,1719.5561401800342,-4771.387015164024,2150.979853614257,3.558474758048039,0.8923540560067315,-0.639871217627004,3.724039948776621,0.0279692133184379,0.0037318187687426,0.0035825016954172,-0.3092083190220085,0.0470830617826818,0.3562913808046903,-989.3173792091304,-7.255486945419875,O=C1OCC(Cc2cccc(O)c2)C1Cc1cccc(O)c1,train_full
202,61,6,data/moses_wfns/archive_0_0_0.tar,-996.571477254262,-95.67914869543964,1750.7079233883037,-4833.882206696907,2182.314375542629,0.235199198881519,2.4837855754979,-3.4667302322857507,4.271150658973523,0.0195209170146658,0.0046553160687548,0.0042278226256032,-0.2967231143046584,0.056964828493251,0.3536879427979094,-989.3173792091304,-7.2540980451314,O=C1OCC(Cc2cccc(O)c2)C1Cc1cccc(O)c1,train_full
203,61,7,data/moses_wfns/archive_0_0_0.tar,-996.5564574107964,-95.7129496606735,1781.904089379316,-4895.794909433447,2213.08249563352,0.842083320443749,2.7011765216742725,-0.2885108714879633,2.8440635440827675,0.0167261232565059,0.0054942197902977,0.0046813560602317,-0.3181562486079426,0.0519657821848838,0.3701220307928264,-989.3173792091304,-7.239078201665961,O=C1OCC(Cc2cccc(O)c2)C1Cc1cccc(O)c1,test_full_conformations
204,61,8,data/moses_wfns/archive_0_0_0.tar,-996.567429453548,-95.70197071201883,1731.0433018567244,-4793.8626016759645,2161.986736805932,0.8386933000795215,5.949547630891179,1.3486406432897644,6.157869359492304,0.0136434887548917,0.0050520486126984,0.0042445538578423,-0.307911059625941,0.0493528878113378,0.3572639474372788,-989.3173792091304,-7.250050244417594,O=C1OCC(Cc2cccc(O)c2)C1Cc1cccc(O)c1,train_full
205,61,9,data/moses_wfns/archive_0_0_0.tar,-996.5827057128,-95.72673994017497,1774.0706062400689,-4880.443004145836,2205.550757133271,4.440977949446756,-0.3888314870059801,-2.309807699876117,5.020825299008779,0.0150791398478358,0.0058371970262794,0.0047685262632481,-0.3018887213929839,0.0466909940400228,0.3485797154330067,-989.3173792091304,-7.265326503669598,O=C1OCC(Cc2cccc(O)c2)C1Cc1cccc(O)c1,train_full
206,62,0,data/moses_wfns/archive_0_0_0.tar,-1294.4228801697736,-102.48500103080278,1676.4970746198717,-5094.608428328789,2226.19733582802,2.494948418538544,4.060998434242742,2.8651845731378347,5.561093285698147,0.01150223147067,0.008446343842291,0.0052184912553781,-0.3206939643314189,-0.0205558438221263,0.3001381205092926,-1288.3753243077156,-6.047555862058061,Clc1ccc2c(c1)C(c1ccccc1)=NCc1nncn1-2,train_full
207,63,0,data/moses_wfns/archive_0_0_0.tar,-841.2947696479747,-83.0667553706598,1524.0260356169333,-4166.191539816704,1883.9662787763364,-1.951470797339483,-1.5179746778710337,-1.535125480161091,2.910171066340652,0.0250347704613684,0.0078849632387066,0.0074055481778771,-0.2937509638548696,0.0203257168003955,0.3140766806552651,-834.629088719161,-6.665680928813686,CCc1ccccc1-n1c(C)nc2ccccc2c1=O,train_full
208,63,1,data/moses_wfns/archive_0_0_0.tar,-841.2961261416443,-83.05295699071603,1509.9940218686083,-4138.038404925692,1869.8290329187028,-1.3887852504649814,1.993272084876493,-1.371568289456618,2.789813192473632,0.0244798703305986,0.0073723186989548,0.0071114804048431,-0.2905838127973773,0.0205350910165421,0.3111189038139194,-834.629088719161,-6.667037422483304,CCc1ccccc1-n1c(C)nc2ccccc2c1=O,test_full_conformations
209,63,2,data/moses_wfns/archive_0_0_0.tar,-841.2884071355052,-83.04153534170827,1525.610036703981,-4169.298701336324,1885.470484892868,-1.0812154238125773,0.3869417964961161,-2.638154657245036,2.8772575036151222,0.0244388116582746,0.0078591411995154,0.0075365887028231,-0.2938599091401095,0.0157068879125869,0.3095667970526964,-834.629088719161,-6.659318416344149,CCc1ccccc1-n1c(C)nc2ccccc2c1=O,train_full
210,63,3,data/moses_wfns/archive_0_0_0.tar,-841.2982610963556,-83.0509124944424,1525.0458535346756,-4168.088947828977,1884.825317717448,-2.5599591766415166,-1.4923947173178609,0.2702976892786252,2.975515723228283,0.0250370971086874,0.0077797623823634,0.0074253602493357,-0.292671961464569,0.0190155390461176,0.3116875005106865,-834.629088719161,-6.669172377194627,CCc1ccccc1-n1c(C)nc2ccccc2c1=O,train_full
211,64,0,data/moses_wfns/archive_0_0_0.tar,-1732.9189125284502,-125.87503812795188,2187.0918328928665,-6718.595784385437,2924.4890845213345,0.9889836253078802,8.836114159854256,1.79743523037273e-05,8.89128798641834,0.0087890622590297,0.0064898174248267,0.0041569075698366,-0.26781969841116,-0.0070309431904318,0.2607887552207282,-1726.155324519258,-6.763588009192063,CCc1cc2c(s1)-n1c(C)nnc1CN=C2c1ccccc1Cl,test_full_conformations
212,64,1,data/moses_wfns/archive_0_0_0.tar,-1732.9169141989107,-125.89169238769092,2192.5590761943035,-6729.440134199774,2929.8849857432056,0.8809156397970779,8.631351529769004,-1.966678740613874,8.89629512008608,0.0087520704147104,0.0067399009832445,0.0041037764349167,-0.263614278720132,-0.0043042942935832,0.2593099844265488,-1726.155324519258,-6.761589679652616,CCc1cc2c(s1)-n1c(C)nnc1CN=C2c1ccccc1Cl,train_full
213,64,2,data/moses_wfns/archive_0_0_0.tar,-1732.9545585325477,-125.84699067328168,2223.3266485786125,-6790.863444648586,2960.459197839494,1.9972800324545887,7.199222751985368,0.0210276790871706,7.4711697828407955,0.0101683905022319,0.0067444630832216,0.0047141881875088,-0.3052956556644184,-0.0161425173442064,0.289153138320212,-1726.155324519258,-6.799234013289379,CCc1cc2c(s1)-n1c(C)nnc1CN=C2c1ccccc1Cl,train_full
214,65,0,data/moses_wfns/archive_0_0_0.tar,-1602.8607174961137,-108.24503134025294,1509.256430124412,-5196.380594564882,2192.531379345084,-0.7404512048555397,-1.0258704514831305,0.5554483060947988,1.3817383944661172,0.0241467464152886,0.0053733336275523,0.0051760125478156,-0.3032987688291689,0.0293875286278811,0.33268629745705,-1597.674069852796,-5.1866476433174284,CCc1nc(N)nc(N)c1-c1ccc(Cl)c(Cl)c1,train_full
215,65,1,data/moses_wfns/archive_0_0_0.tar,-1602.870185976609,-108.30112759406924,1512.8092784267612,-5203.548329383983,2196.192808588426,-1.70361185143374,0.5809735589745672,-1.317656128248207,2.230704213669559,0.0225336702262873,0.0054166390859599,0.0052026571833132,-0.3057005345472366,0.0263811702216677,0.3320817047689043,-1597.674069852796,-5.196116123812999,CCc1nc(N)nc(N)c1-c1ccc(Cl)c(Cl)c1,test_full_conformations
216,66,0,data/moses_wfns/archive_0_0_0.tar,-1220.6695820211455,-113.50086552392196,2117.4885484267866,-5873.710105218882,2649.0788192648893,2.9626637153840725,-6.080159423141565,-2.8399349454200205,7.335594413235259,0.0170171784394986,0.0030104786818893,0.0025788365537044,-0.2793558036031623,0.004757563002552,0.2841133666057143,-1213.2424269879243,-7.427155033221425,COc1ccc(-c2cc(=O)c3c(O)c(OC)c(OC)cc3o2)cc1O,test_full_conformations
217,66,1,data/moses_wfns/archive_0_0_0.tar,-1220.6785555622555,-113.54522840986652,2119.256217719109,-5877.106148983417,2650.742113462149,6.003492223508424,-2.2117307197591667,-3.8556121467241495,7.469900714227688,0.0166142531799683,0.0030795922308936,0.0026170283485613,-0.2805827810827012,0.0017584047932466,0.2823411858759478,-1213.2424269879243,-7.436128574331178,COc1ccc(-c2cc(=O)c3c(O)c(OC)c(OC)cc3o2)cc1O,train_full
218,67,0,data/moses_wfns/archive_0_0_0.tar,-1032.4650307819595,-97.57469188072491,1768.4324180055598,-4920.486528429891,2217.190912902048,3.219864553422919,2.9529353865472125,-2.0658384783693924,4.832705635378972,0.0202386348310016,0.0049606493628642,0.0041021359708174,-0.2879297269628786,0.0203861480529754,0.308315875015854,-1025.4909714484345,-6.974059333525247,Cc1c(O)c(C)c2c(c1O)C(=O)CC(c1ccc(O)cc1)O2,train_full
219,67,1,data/moses_wfns/archive_0_0_0.tar,-1032.4393389379034,-97.54480417263387,1816.676992326734,-5017.851752295237,2266.3086731041462,0.6788755658145078,3.275326342719946,1.100072028576772,3.5211920074361465,0.0151097121728416,0.0062759257543895,0.0056111052898548,-0.2881007059898147,0.0251487607304182,0.3132494667202329,-1025.4909714484345,-6.948367489468865,Cc1c(O)c(C)c2c(c1O)C(=O)CC(c1ccc(O)cc1)O2,test_full_conformations
220,68,0,data/moses_wfns/archive_0_0_0.tar,-1360.5557470442648,-106.4774611028377,1769.9153612477162,-5378.186929107601,2354.218402771162,-1.0601412996718322,1.464186380371955,0.1499488594550191,1.8138980104152689,0.0109725060796408,0.00912250808931,0.0056150832899117,-0.300402066564246,-0.0128586615367157,0.2875434050275303,-1354.4241355038453,-6.131611540419499,CN1C(=O)CN=C(c2ccccc2F)c2cc(Cl)ccc21,train_full
221,68,1,data/moses_wfns/archive_0_0_0.tar,-1360.535384443787,-106.49978431464626,1745.789456882378,-5330.04821175022,2330.247793482351,-1.0034028142621625,2.4041034876660894,1.6628918016548548,3.090588929490367,0.0104903579859155,0.0089101977740013,0.0052105906781577,-0.2967117289892191,-0.00664204359589,0.2900696853933291,-1354.4241355038453,-6.111248939941788,CN1C(=O)CN=C(c2ccccc2F)c2cc(Cl)ccc21,test_full_conformations
222,69,0,data/moses_wfns/archive_0_0_0.tar,-1068.643999620954,-99.37896849580297,1776.7876406023274,-4986.467843281337,2240.440020055484,0.4600751629055133,-1.6267906380433466,-1.5906593816697778,2.321274262994809,0.0205688168541574,0.0048365558998167,0.0040183321117265,-0.3150855993297205,-0.0094799314991801,0.3056056678305404,-1062.1181440508976,-6.525855570056365,CCOC(=O)c1ncn2c1CN(C)C(=O)c1cc(F)ccc1-2,test_full_structures
223,70,0,data/moses_wfns/archive_0_0_0.tar,-973.3129464476616,-87.83654989423066,1462.9973805703737,-4238.436678049565,1889.9858444631773,3.952357059622319,1.9899428825018253,3.056988044267029,5.378305951241302,0.0289868877050292,0.0078521260070767,0.0075565302722666,-0.3096450294570257,0.0199003381835319,0.3295453676405576,-968.056095444806,-5.256851002855569,Cc1cn(C2OC(CO)C(O)C2F)c(=O)[nH]c1=O,test_full_conformations
224,70,1,data/moses_wfns/archive_0_0_0.tar,-973.2846388485524,-87.87725358614927,1466.9833680685872,-4246.921221688024,1894.5532528247973,2.1266331150546973,-0.0324517962930549,5.360795257073384,5.76729982863648,0.0310839500471509,0.0075285068527797,0.0072803250088511,-0.3089247462445703,0.0103058653608426,0.3192306116054129,-968.056095444806,-5.228543403746357,Cc1cn(C2OC(CO)C(O)C2F)c(=O)[nH]c1=O,train_full
225,70,2,data/moses_wfns/archive_0_0_0.tar,-973.3131778537504,-87.86208344461586,1469.3237148466435,-4251.203740730527,1896.451971719096,4.566976397668175,-0.7075195191615339,2.549836102550521,5.278211954509101,0.024813118575804,0.0091674084829163,0.0073003105503951,-0.3073146022845333,0.0146849364448889,0.3219995387294221,-968.056095444806,-5.25708240894437,Cc1cn(C2OC(CO)C(O)C2F)c(=O)[nH]c1=O,train_full
226,71,0,data/moses_wfns/archive_0_0_0.tar,-924.40978358589,-85.0386591518084,1346.8420709306774,-3935.829624880208,1749.6360276775938,-3.1921052668146044,7.29186521820707,3.518182243771609,8.702783502725632,0.0267959402766786,0.0064237049904653,0.0054754246633357,-0.2707178305459819,0.0530298860168641,0.323747716562846,-919.2340929969504,-5.175690588939574,Nc1nc2c(ncn2COC(CO)CO)c(=O)[nH]1,train_full
227,71,1,data/moses_wfns/archive_0_0_0.tar,-924.4135978822588,-85.02592958779756,1355.106812572929,-3951.9651119928617,1757.490234360338,-0.523431331929639,3.2447308443424348,-6.19984973986822,7.017150091626716,0.0257053898100109,0.0068031227670445,0.0057423698778236,-0.2807500293614298,0.039194959158434,0.3199449885198638,-919.2340929969504,-5.1795048853082335,Nc1nc2c(ncn2COC(CO)CO)c(=O)[nH]1,test_full_conformations
228,71,2,data/moses_wfns/archive_0_0_0.tar,-924.4084727966437,-85.05258692994681,1379.7285385841767,-4001.6719528881617,1782.6084655482869,0.7241838479199563,6.473329049648713,-0.050561464316397,6.51390725235537,0.0247480749446138,0.0073664591283948,0.0068459203959411,-0.2876797656132249,0.0185169665994588,0.3061967322126837,-919.2340929969504,-5.1743797996930425,Nc1nc2c(ncn2COC(CO)CO)c(=O)[nH]1,train_full
229,72,0,data/moses_wfns/archive_0_0_0.tar,-1528.9537359750373,-120.2083140841006,2138.2755276060425,-6345.802736088118,2798.8100449212907,-1.4166696218314925,1.311869728709229,0.5542900092620892,2.008778837227129,0.008822948436559,0.0069798590735819,0.0041333709530614,-0.2916416923445499,0.0037694275038781,0.295411119848428,-1522.1557066027094,-6.798029372327846,COc1c(OC)c(OC(C)=O)c2cc(Cl)ccc2c1OC(C)=O,train_full
230,73,0,data/moses_wfns/archive_0_0_0.tar,-1222.204369442,-95.1169360957779,1495.5793277234704,-4639.62698458782,2016.98188833981,-2.309859731150417,-2.6485820039167,-0.1931405245381897,3.519622404645215,0.0237250230273906,0.0075313500485926,0.0072213576765718,-0.2927034432658873,0.0173257389493676,0.3100291822152549,-1216.5090733989898,-5.69529604301033,Cc1nc2ccccc2c(=O)n1-c1ccccc1Cl,train_full
231,74,0,data/moses_wfns/archive_0_0_0.tar,-916.4157655297312,-89.06555859906486,1568.0125103344226,-4356.880506266503,1961.5427363988413,2.4741234338785456,-1.1065172087562196,-1.403773346658502,3.052252726778933,0.0360456194715592,0.0043796286488599,0.0040317489017456,-0.2894896970343453,0.016197182706319,0.3056868797406643,-909.6057668176696,-6.809998712061429,CCOc1ccc(-n2c(C)nc3ccccc3c2=O)cc1,test_full_structures
232,75,0,data/moses_wfns/archive_0_0_0.tar,-1222.208818566646,-95.1293442335162,1432.1382480229115,-4512.453443722514,1953.2564600195708,0.1118825791834386,-0.716631195024079,-2.221450759743828,2.3368614548519573,0.0356956808591329,0.0053368947170399,0.0048717713450622,-0.3009559810499564,0.0176602305273983,0.3186162115773547,-1216.5090733989898,-5.699745167656147,Cc1nc2ccccc2c(=O)n1-c1ccc(Cl)cc1,train_full
233,76,0,data/moses_wfns/archive_0_0_0.tar,-1497.630958095824,-104.0873206550402,1460.7854446042406,-4957.262996810381,2102.9497492877763,-1.8991675947124644,7.582106906892752,3.619706686149055,8.613794703503729,0.0239965212813438,0.0064771199903638,0.0058744715166172,-0.2804557605502433,0.0281007284672356,0.3085564890174789,-1492.9728756321242,-4.658082463699884,Cc1csc(=NS(=O)(=O)c2ccc(N)cc2)[nH]1,test_full_structures