,MOSES id,CONFORMER id,archive name,DFT TOTAL ENERGY,DFT XC ENERGY,DFT NUCLEAR REPULSION ENERGY,DFT ONE-ELECTRON ENERGY,DFT TWO-ELECTRON ENERGY,DFT DIPOLE X,DFT DIPOLE Y,DFT DIPOLE Z,DFT TOTAL DIPOLE,DFT ROT CONSTANT A,DFT ROT CONSTANT B,DFT ROT CONSTANT C,DFT HOMO,DFT LUMO,DFT HOMO-LUMO GAP,DFT ATOMIC ENERGY,DFT FORMATION ENERGY,SMILES,SPLITS
234,76,1,data/moses_wfns/archive_0_0_0.tar,-1497.6482686740765,-104.1134655700436,1441.588106624414,-4919.0373584736135,2083.92997083067,-1.775810360075165,6.957391350845084,2.268124714998049,7.530151828917479,0.0312145275309943,0.0056724552961387,0.0052365759257135,-0.2793821597236899,0.0437314024109848,0.3231135621346747,-1492.9728756321242,-4.675393041952248,Cc1csc(=NS(=O)(=O)c2ccc(N)cc2)[nH]1,test_full_structures
235,76,2,data/moses_wfns/archive_0_0_0.tar,-1497.63302106245,-104.10415258187253,1460.9587390430695,-4956.444928322446,2101.974440287432,-1.11851118786136,-1.756816914470151,9.835600026637357,10.053680959346591,0.017455168484313,0.0074391209321729,0.0061400866760594,-0.2930328682801686,0.0205661027255077,0.3135989710056763,-1492.9728756321242,-4.660145430325883,Cc1csc(=NS(=O)(=O)c2ccc(N)cc2)[nH]1,test_full_structures
236,77,0,data/moses_wfns/archive_0_0_0.tar,-1539.6977062104124,-107.0868765925445,1601.7055964002716,-5295.6069627238585,2261.312517145543,-2.723561548574392,-9.771841279157846,2.826755132760793,10.530774618921232,0.0213618553354512,0.0082870253597715,0.0067057258457455,-0.3438000750317704,-0.0088836547611523,0.3349164202706181,-1534.8863886811123,-4.8113175293001404,Cc1cc2c(cc1S(N)(=O)=O)S(=O)(=O)CCC2,train_full
237,78,0,data/moses_wfns/archive_0_0_0.tar,-1563.585199836912,-104.1046971050086,1363.7661496925186,-4853.566267561023,2030.338425351878,-1.0769890300691225,0.2594564479311332,-1.1012362391712365,1.5620320975339397,0.0305281977204331,0.005572045319812,0.0051933356356104,-0.3035646296723726,0.0191359531752876,0.3227005828476602,-1558.8709839935918,-4.714215843320289,Cc1nc(N)nc(N)c1-c1ccc(Cl)c(Cl)c1,test_full_structures
238,78,1,data/moses_wfns/archive_0_0_0.tar,-1563.613647650425,-104.0818713987883,1366.0091535026104,-4858.373156578125,2032.8512150154163,-2.2226208458216985,0.3871066102918062,1.439154810077835,2.6760159789102427,0.0304556299631328,0.0055419276689566,0.0054355583386187,-0.3021297042836745,0.0336820873479079,0.3358117916315824,-1558.8709839935918,-4.7426636568332015,Cc1nc(N)nc(N)c1-c1ccc(Cl)c(Cl)c1,test_full_structures
239,79,0,data/moses_wfns/archive_0_0_0.tar,-892.8150484512424,-86.80661574281389,1523.098817367625,-4235.187421444297,1906.1087122830288,1.019619190740604,0.9268466540715968,-4.407178236747264,4.617562996294578,0.0368140675619382,0.0044423721839242,0.0041878870771139,-0.2617330456073449,0.0150334048826075,0.2767664504899524,-886.3095149639837,-6.505533487258731,Cc1ccc(C)n1Nc1ccc(N2CCOCC2)nn1,train_full
240,79,1,data/moses_wfns/archive_0_0_0.tar,-892.8318799259282,-86.79083363165655,1514.84245592698,-4218.9680843126,1898.112050052673,2.603435819396014,3.939774948535108,-2.833053723029057,5.506895505490168,0.03773912759615,0.0043090084727432,0.0040041986698934,-0.2548132085559573,0.0226655331351928,0.2774787416911501,-886.3095149639837,-6.522364961944504,Cc1ccc(C)n1Nc1ccc(N2CCOCC2)nn1,test_full_conformations
241,79,2,data/moses_wfns/archive_0_0_0.tar,-892.8212753481533,-86.83462304857713,1518.8896197548008,-4227.017904337454,1902.1689733288065,1.7358850201713,1.9375346838774243,-4.715758022519142,5.38569505091374,0.0368732246929477,0.004383124970764,0.0040413998253952,-0.2522350699445692,0.0183990338689265,0.2706341038134957,-886.3095149639837,-6.511760384169634,Cc1ccc(C)n1Nc1ccc(N2CCOCC2)nn1,train_full
242,79,3,data/moses_wfns/archive_0_0_0.tar,-892.8317121975872,-86.80154980811258,1522.9032932641571,-4235.057458079884,1906.151976123088,3.8464821195943903,-3.6351622394932046,0.3379088906360584,5.303207672924708,0.0388005442653555,0.0043022260865638,0.0042120540656538,-0.2557747661726968,0.0164401896264743,0.2722149557991711,-886.3095149639837,-6.522197233603492,Cc1ccc(C)n1Nc1ccc(N2CCOCC2)nn1,train_full
243,80,0,data/moses_wfns/archive_0_0_0.tar,-953.8776046835808,-89.1636970422706,1469.9193490370465,-4220.247353924053,1885.6349821430867,1.154977318849478,-0.4417239849621915,-3.500985685797487,3.712949428433749,0.0260244545845797,0.0055386137315155,0.0046147335509275,-0.3108939565646087,0.0104372312942316,0.3213311878588403,-947.884799730025,-5.992804953555947,O=C1CC(c2ccc(O)cc2)Oc2cc(O)cc(O)c21,train_full
244,81,0,data/moses_wfns/archive_0_0_0.tar,-925.350020554355,-86.51809512022132,1483.2695939054493,-4208.078869591939,1886.000658426248,-2.6710142935831955,1.1278101693223732,1.4614801577087784,3.246875018526148,0.0317626280310122,0.0071488711715985,0.0065994185275502,-0.2883620345670676,0.0313126647229091,0.3196746992899767,-919.8536135833868,-5.496406970968224,Nc1ncnc2c1ncn2C1C=C(CO)C(O)C1O,train_full
245,81,1,data/moses_wfns/archive_0_0_0.tar,-925.3699994012696,-86.47521168128509,1458.3006316489743,-4156.903780435175,1859.7314363201097,-0.4006334981089695,3.9664181186810112,-0.1654131131626589,3.99003024926055,0.0280008975551932,0.0067579896593454,0.0061750002696121,-0.2988130275211308,0.0195771938348186,0.3183902213559494,-919.8536135833868,-5.516385817882792,Nc1ncnc2c1ncn2C1C=C(CO)C(O)C1O,test_full_conformations
246,81,2,data/moses_wfns/archive_0_0_0.tar,-925.3744868634196,-86.50934495047197,1465.8684692222146,-4172.43312006227,1867.7231598455887,-2.09536123144541,-1.8985608724361271,0.2778066857048643,2.8411702925400606,0.0335499101239874,0.0067682079165545,0.0059920963126012,-0.286306037606478,0.0363401909302548,0.3226462285367328,-919.8536135833868,-5.520873280032788,Nc1ncnc2c1ncn2C1C=C(CO)C(O)C1O,train_full
247,82,0,data/moses_wfns/archive_0_0_0.tar,-897.759062195318,-88.45560474396393,1602.6626144078457,-4399.526966083336,1987.590720679082,5.126439950367126,-1.8358994902258632,1.5710461422102435,5.667371479256091,0.0205501766677813,0.0051300163898789,0.0043062043358627,-0.2710851117370665,0.0118464329861755,0.282931544723242,-890.6589833266398,-7.100078868678224,O=C(c1ccccc1Nc1ccncc1)N1CCCCC1,test_full_conformations
248,82,1,data/moses_wfns/archive_0_0_0.tar,-897.7533735777633,-88.45123808386153,1601.312500061672,-4396.95735244228,1986.3725463547005,5.27088050093811,-2.304349036710501,0.8163886929811781,5.810223423947285,0.0212985230824635,0.0050404179690227,0.0042776426569704,-0.2701350941028484,0.0132770022943565,0.2834120963972049,-890.6589833266398,-7.094390251123514,O=C(c1ccccc1Nc1ccncc1)N1CCCCC1,train_full
249,83,0,data/moses_wfns/archive_0_0_0.tar,-832.5591135689258,-79.82436864919681,1269.3205123890675,-3646.925619555992,1624.8892295732014,9.996531771939674,-6.7644872412262576,-14.357964673902924,18.757400797582708,0.0233477032003369,0.0072417374631882,0.0058696714850386,-0.2711399640442827,-0.0430192781645694,0.2281206858797133,-827.2646608063079,-5.29445276261788,CC1=NC(=O)C(C#N)=CC1=C1C=CN2C=CNC2=C1,test_full_conformations
250,83,1,data/moses_wfns/archive_0_0_0.tar,-832.4653704622664,-79.80977322698247,1269.453881783002,-3647.073115939932,1624.982839946902,11.01676221251535,-8.001718075221325,-14.1810367058928,19.65956113081644,0.0327211516199915,0.0063473439321377,0.0053645680975208,-0.2533316368114292,-0.0419372739887728,0.2113943628226564,-827.2646608063079,-5.200709655958463,CC1=NC(=O)C(C#N)=CC1=C1C=CN2C=CNC2=C1,train_full
251,84,0,data/moses_wfns/archive_0_0_0.tar,-1179.642804133856,-92.87683402540394,1285.4536126357211,-4165.588124876456,1793.383754145618,-0.0445810455092534,-0.9583778334459082,3.2178103089526444,3.3577937288733333,0.0588745124055714,0.0038941263959094,0.0038726499678794,-0.2984292253585847,-0.0046792398149705,0.2937499855436142,-1174.3270942576828,-5.31570987617306,CC(=O)Nc1ccc(OC(=O)c2cccs2)cc1,train_full
252,85,0,data/moses_wfns/archive_0_0_0.tar,-888.5371283309586,-83.1730568784775,1339.8286499138349,-3871.381956510032,1726.2126764548532,3.032891661832588,-5.002905445085142,0.8195878701712223,5.907556093835081,0.0294586842685924,0.0061055445126057,0.0051796742710375,-0.2762356077678206,0.0318006389289618,0.3080362466967823,-883.0605007576463,-5.476627573312271,Nc1nc2c(ncn2CCC(CO)CO)c(=O)[nH]1,test_full_structures
253,85,1,data/moses_wfns/archive_0_0_0.tar,-888.5681964321057,-83.1669475940215,1332.5280068176196,-3856.6693269241177,1718.7628842620766,2.985945387867192,-5.083966108711845,7.072225174914613,9.207548543372011,0.0250122371217112,0.0062053452232182,0.0053502088406301,-0.2668772018822813,0.0495521872527437,0.316429389135025,-883.0605007576463,-5.507695674459342,Nc1nc2c(ncn2CCC(CO)CO)c(=O)[nH]1,test_full_structures
254,85,2,data/moses_wfns/archive_0_0_0.tar,-888.5720328851726,-83.167413361712,1390.954060093319,-3973.738012518019,1777.404843390979,4.26744656783678,-5.307756314154806,-2.6893948080581653,7.322309863246866,0.0222167242284145,0.008753973629269,0.0070400278842644,-0.2666621550404898,0.0539127592574064,0.3205749142978962,-883.0605007576463,-5.511532127526266,Nc1nc2c(ncn2CCC(CO)CO)c(=O)[nH]1,test_full_structures
255,85,3,data/moses_wfns/archive_0_0_0.tar,-888.5470150148672,-83.12560857686476,1381.3251675790318,-3954.788509552736,1768.0666418667406,2.4886673416638163,-5.244942902939071,4.487391251418775,7.337545327687232,0.0255153721702114,0.0074108821996933,0.0068078586916648,-0.268180284449261,0.046036493255608,0.314216777704869,-883.0605007576463,-5.486514257220847,Nc1nc2c(ncn2CCC(CO)CO)c(=O)[nH]1,test_full_structures
256,86,0,data/moses_wfns/archive_0_0_0.tar,-1953.7511905745368,-115.0366657317786,1427.7013012793127,-5532.149850450906,2265.753904533673,-3.0412474873180493,-1.5071099453212553,0.8395267979575424,3.4964799314300987,0.0317737122203132,0.0074798912867987,0.0070206200696088,-0.3441353979238267,0.0689371484434776,0.4130725463673043,-1949.9867826031848,-3.7644079713511474,OCC1(CO)COC(C(Cl)(Cl)Cl)OC1,train_full
257,86,1,data/moses_wfns/archive_0_0_0.tar,-1953.755228957956,-115.01356164545186,1413.7435186762905,-5504.563701198361,2252.097940740809,-4.551390613094007,0.8319566558169254,-1.0112042804183916,4.736015465225468,0.0277815741508348,0.0071613264226027,0.0069654817820776,-0.3422896442253192,0.0766861960055365,0.4189758402308557,-1949.9867826031848,-3.768446354770731,OCC1(CO)COC(C(Cl)(Cl)Cl)OC1,test_full_conformations
258,86,2,data/moses_wfns/archive_0_0_0.tar,-1953.743190266173,-115.018358683709,1413.5129258891052,-5503.986278649609,2251.7681690018644,-4.6940186758144815,-3.233100726746676,0.772441696888312,5.751818652676448,0.0313338805950007,0.0067911745623954,0.0066945415506557,-0.3274705201526781,0.0706882342239792,0.3981587543766572,-1949.9867826031848,-3.7564076629880674,OCC1(CO)COC(C(Cl)(Cl)Cl)OC1,train_full
259,86,3,data/moses_wfns/archive_0_0_0.tar,-1953.7186157691128,-115.03514354180832,1420.384735446271,-5517.404890713224,2258.356342158452,-1.8120743923287344,0.049879684133638,0.7337029179654143,1.9556128343958543,0.0322850834152765,0.0071470703097288,0.0070058675486323,-0.3294111828696519,0.0698646235353765,0.3992758064050283,-1949.9867826031848,-3.731833165927128,OCC1(CO)COC(C(Cl)(Cl)Cl)OC1,train_full
260,87,0,data/moses_wfns/archive_0_0_0.tar,-883.1888404895768,-86.888703608168,1697.0244633197524,-4570.85470695241,2077.5699120288305,-0.2742556688429835,-1.8986411058855344,-0.3197768449251033,1.944816559833089,0.0131250822003334,0.0112438729803922,0.007835904495544,-0.3062198291886363,0.0400940061631753,0.3463138353518116,-875.8276135421261,-7.361226947450746,CCN(CC)C(=O)c1ccccc1C(=O)N(CC)CC,train_full
261,87,1,data/moses_wfns/archive_0_0_0.tar,-883.2044502989843,-86.89821098344285,1689.254327570644,-4555.467342640201,2069.945752414992,-0.0264469658296795,-1.742208155294648,-0.9035432047378904,1.962747824149805,0.0132352637646419,0.0101585666367571,0.0079980420883808,-0.3090557465434287,0.0407795888458948,0.3498353353893235,-875.8276135421261,-7.376836756858211,CCN(CC)C(=O)c1ccccc1C(=O)N(CC)CC,train_full
262,87,2,data/moses_wfns/archive_0_0_0.tar,-883.1753710499693,-86.86325249621508,1679.3111378321307,-4535.131437411013,2059.548031935374,-4.302980419621462,-0.5178123663445634,5.181474931360647,6.755105669247808,0.0131368051268988,0.0095688771784673,0.007485506719669,-0.3022353407592575,0.0369705820564871,0.3392059228157446,-875.8276135421261,-7.347757507843198,CCN(CC)C(=O)c1ccccc1C(=O)N(CC)CC,train_full
263,87,3,data/moses_wfns/archive_0_0_0.tar,-883.1570978130021,-86.864014820257,1687.093120420756,-4550.6694227383405,2067.323867218347,0.5892573044020863,1.5843823482912456,-6.700912435112701,6.9108406912195655,0.0123307554699485,0.0104458734189186,0.0077640123089985,-0.2975132437930723,0.0379472065872373,0.3354604503803096,-875.8276135421261,-7.329484270876037,CCN(CC)C(=O)c1ccccc1C(=O)N(CC)CC,test_full_conformations
264,87,4,data/moses_wfns/archive_0_0_0.tar,-883.1675493848644,-86.87967627353184,1676.2899418297266,-4529.032424359194,2056.4941604570377,4.439627381797161,-0.187477162013174,-5.550101121347085,7.10978631413475,0.0137304601559897,0.0092005171426311,0.0074020310336047,-0.3054867428626432,0.0409370736948372,0.3464238165574804,-875.8276135421261,-7.339935842738328,CCN(CC)C(=O)c1ccccc1C(=O)N(CC)CC,train_full
265,87,5,data/moses_wfns/archive_0_0_0.tar,-883.1758159453263,-86.87842611004855,1684.940428762085,-4546.252936512349,2065.05546102263,-1.4330202081003425,-0.5004101627864568,6.641537285225603,6.81278025176842,0.0124537831377884,0.0102991472317849,0.0076747555723804,-0.3088505282191223,0.0425246661169455,0.3513751943360678,-875.8276135421261,-7.3482024032002755,CCN(CC)C(=O)c1ccccc1C(=O)N(CC)CC,train_full
266,87,6,data/moses_wfns/archive_0_0_0.tar,-883.1976790523906,-86.91194783595199,1703.374516138079,-4583.524872334791,2083.9055274264524,0.3326289258941704,-1.703853841957695,-0.6599335487351874,1.8572216361656264,0.0135102721736273,0.0115963442175794,0.0076065087207349,-0.3038101098080812,0.0413944486153312,0.3452045584234124,-875.8276135421261,-7.370065510264567,CCN(CC)C(=O)c1ccccc1C(=O)N(CC)CC,train_full
267,87,7,data/moses_wfns/archive_0_0_0.tar,-883.1605591567608,-86.87017830281843,1695.991368781254,-4568.435563176159,2076.195292218595,4.64345188599731,1.731400640239984,-4.844644275112913,6.930365917249948,0.0119454493137826,0.0112181419966698,0.008013929686244,-0.3013580328422364,0.0407836474063739,0.3421416802486103,-875.8276135421261,-7.332945614634696,CCN(CC)C(=O)c1ccccc1C(=O)N(CC)CC,train_full
268,87,8,data/moses_wfns/archive_0_0_0.tar,-883.1964741975959,-86.88095317425889,1684.611656414391,-4546.026205439962,2065.138209817888,0.0428315191379076,-2.9334111507700693,0.3638111386549681,2.956195876985026,0.0144689990613124,0.0091712261701484,0.0077990622670352,-0.3027315233130355,0.0323948632472972,0.3351263865603326,-875.8276135421261,-7.368860655469803,CCN(CC)C(=O)c1ccccc1C(=O)N(CC)CC,train_full
269,87,9,data/moses_wfns/archive_0_0_0.tar,-883.203642844357,-86.87813370834748,1705.3897597045802,-4587.644438692787,2085.970042833909,-0.2224494047086986,-2.0392252298987463,1.0315077538484798,2.296068710243748,0.0134758525534866,0.0114291812491176,0.0079680459787249,-0.3065208133744788,0.0401798858169101,0.3467006991913889,-875.8276135421261,-7.376029302230904,CCN(CC)C(=O)c1ccccc1C(=O)N(CC)CC,train_full
270,87,10,data/moses_wfns/archive_0_0_0.tar,-883.193972966033,-86.87577987397455,1672.4517567409027,-4521.841041398229,2053.108603530728,0.4103503433754517,-1.6813462892928448,-0.6723905636680729,1.8567234093792853,0.0141222877009027,0.0089128686580267,0.0077240700720392,-0.3083457899016141,0.0410511558777938,0.3493969457794079,-875.8276135421261,-7.3663594239069425,CCN(CC)C(=O)c1ccccc1C(=O)N(CC)CC,train_full
271,87,11,data/moses_wfns/archive_0_0_0.tar,-883.18988694885,-86.87401929697162,1670.0602845360086,-4517.176197458413,2050.837302907704,0.4260049770268172,-1.2894900538673917,-0.8991452152191155,1.628719422591251,0.0138460609787328,0.0089790496788587,0.0076582920337283,-0.3069246796332138,0.0427808806714427,0.3497055603046565,-875.8276135421261,-7.362273406723943,CCN(CC)C(=O)c1ccccc1C(=O)N(CC)CC,train_full
272,87,12,data/moses_wfns/archive_0_0_0.tar,-883.1864230731348,-86.89567620795361,1704.93215719069,-4586.125312778215,2084.945208183257,-2.330046368380404,3.64731154443375,5.6819932914104765,7.142621741671337,0.0121909791893526,0.0113158482336206,0.0081079566297562,-0.3103237381621231,0.0414607117144586,0.3517844498765817,-875.8276135421261,-7.358809531008774,CCN(CC)C(=O)c1ccccc1C(=O)N(CC)CC,train_full
273,87,13,data/moses_wfns/archive_0_0_0.tar,-883.2043175819026,-86.89155064923837,1706.7559905896985,-4590.23540482635,2087.2076990678183,-0.0792039080961562,-1.9363599244367025,0.1081170528595224,1.9409926102747648,0.013373882559752,0.0119399751502052,0.0077032991398976,-0.3078505349724739,0.0419928080673767,0.3498433430398506,-875.8276135421261,-7.376704039776541,CCN(CC)C(=O)c1ccccc1C(=O)N(CC)CC,train_full
274,88,0,data/moses_wfns/archive_0_0_0.tar,-993.1680670501328,-93.35852007264174,1603.4216391108782,-4538.242222729745,2035.0347533319173,-0.2175975468574126,2.8480315173467363,-2.317022263516045,3.677937517934166,0.0267689749597565,0.0044883036054544,0.004203526366519,-0.2894033697374538,0.0059740124542545,0.2953773821917083,-986.68788558923,-6.480181460902713,COc1ccc(C2Cc3cccc(O)c3C(=O)O2)cc1O,train_full
275,88,1,data/moses_wfns/archive_0_0_0.tar,-993.1633372650996,-93.36733400350758,1635.1831176051496,-4601.748995480837,2066.7944717726305,0.0404472260818996,-3.367484561514678,-0.5738169673132334,3.4162631868920723,0.0195105201940387,0.0054768523641087,0.0053321619367143,-0.2899411912375984,0.0122689487594344,0.3022101399970328,-986.68788558923,-6.475451675869749,COc1ccc(C2Cc3cccc(O)c3C(=O)O2)cc1O,train_full
276,88,2,data/moses_wfns/archive_0_0_0.tar,-993.161346221024,-93.3643944697588,1597.4234297315672,-4526.731017132674,2029.5338800852085,2.094594794760473,2.261502914455539,-4.179238805570509,5.193049179462387,0.0273054980933257,0.0043864031568546,0.0040884786920175,-0.2845926833396983,0.0145998160804817,0.29919249942018,-986.68788558923,-6.473460631794069,COc1ccc(C2Cc3cccc(O)c3C(=O)O2)cc1O,train_full
277,88,3,data/moses_wfns/archive_0_0_0.tar,-993.1717110890028,-93.30971394524552,1679.2234535089074,-4690.661335600971,2111.601613861647,-1.4098268761676582,1.9038973994114048,-3.3770145973747594,4.125126024636384,0.016629267330461,0.0070739108445892,0.0065416742899402,-0.2858767892191334,0.0144685124696349,0.3003453016887683,-986.68788558923,-6.483825499772934,COc1ccc(C2Cc3cccc(O)c3C(=O)O2)cc1O,train_full
278,88,4,data/moses_wfns/archive_0_0_0.tar,-993.1779135801196,-93.38087923019653,1660.7893189171675,-4652.973567991898,2092.41234052312,-0.3886404742369507,3.1531436475366803,2.2090669909574983,3.869539152244626,0.016694585626897,0.006511517128274,0.00593296607566,-0.2932521272229448,0.0106878455845718,0.3039399728075166,-986.68788558923,-6.49002799088953,COc1ccc(C2Cc3cccc(O)c3C(=O)O2)cc1O,test_full_conformations
279,89,0,data/moses_wfns/archive_0_0_0.tar,-1198.871876847223,-91.72527630004092,1276.1770478568917,-4170.424185535092,1787.1147119589791,3.8339923435757575,2.114188230845714,-0.4092348717484403,4.397358564672549,0.0303992804234394,0.0059687350810092,0.004989603868645,-0.3320279726977443,-0.0112677708945205,0.3207602018032238,-1193.9278097713272,-4.944067075895646,Clc1ccccc1-c1nc(-c2ccncc2)no1,test_full_scaffolds
280,89,1,data/moses_wfns/archive_0_0_0.tar,-1198.853343816637,-91.7491546945012,1300.8445220301817,-4220.073267915056,1812.1392721351103,4.786539801725385,-0.0349139064486076,-0.0423578943182941,4.78685454610602,0.0356874859808797,0.0067712247136681,0.0056920439051236,-0.3240713361074272,-0.0120891945042552,0.311982141603172,-1193.9278097713272,-4.925534045310087,Clc1ccccc1-c1nc(-c2ccncc2)no1,test_full_scaffolds