,MOSES id,CONFORMER id,archive name,DFT TOTAL ENERGY,DFT XC ENERGY,DFT NUCLEAR REPULSION ENERGY,DFT ONE-ELECTRON ENERGY,DFT TWO-ELECTRON ENERGY,DFT DIPOLE X,DFT DIPOLE Y,DFT DIPOLE Z,DFT TOTAL DIPOLE,DFT ROT CONSTANT A,DFT ROT CONSTANT B,DFT ROT CONSTANT C,DFT HOMO,DFT LUMO,DFT HOMO-LUMO GAP,DFT ATOMIC ENERGY,DFT FORMATION ENERGY,SMILES,SPLITS
699,226,1,data/moses_wfns/archive_0_0_2.tar,-1078.699993246459,-102.89772074621672,1806.7391706316007,-5052.966402978705,2270.446495127917,-1.2062545111386167,-2.2187926128970576,-0.7891612778632844,2.645914988650925,0.0278848889917189,0.0026939081756217,0.0024606972520195,-0.2857591755767834,-0.0112856575118026,0.2744735180649807,-1071.665531539713,-7.034461706746242,Cc1nc2ccc(NC(=O)Nc3ccnc4cccnc34)cc2o1,train_full
700,227,0,data/moses_wfns/archive_0_0_2.tar,-915.4277136561232,-87.70386230432374,1515.8826459084194,-4256.430788256124,1912.849116844339,3.923726357111655,-1.8710314054664976,-1.4827976047547875,4.592937598356978,0.0405021999801945,0.0048499541660937,0.004439843162715,-0.2827846411975457,0.0043474668098918,0.2871321080074375,-908.9862462312332,-6.441467424889879,O=C(NCC1CCCO1)c1c[nH]c2ccccc2c1=O,train_full
701,227,1,data/moses_wfns/archive_0_0_2.tar,-915.4093436241212,-87.68712493519038,1513.1640863624036,-4250.995179604494,1910.133827398685,2.935970117317706,-5.767663787188869,-5.435860854232517,8.45189028078393,0.0394463187477802,0.0048014277757986,0.004449962857822,-0.2805144040872621,0.0071297475968447,0.2876441516841068,-908.9862462312332,-6.423097392887826,O=C(NCC1CCCO1)c1c[nH]c2ccccc2c1=O,test_full_conformations
702,228,0,data/moses_wfns/archive_0_0_2.tar,-1143.4004665175848,-105.56142524807387,1976.625822752557,-5490.717281778061,2476.278301041232,-1.943267179388311,5.364697990833449,-1.807090173918444,5.985135483847699,0.0196871651969116,0.0050797456656386,0.0042223916107856,-0.2969017730379376,-0.0218252219547849,0.2750765510831526,-1136.6412417862468,-6.7592247313380085,COC(=O)C1c2c(oc3cc(CO)cc(O)c3c2=O)C=CC1O,train_full
703,229,0,data/moses_wfns/archive_0_0_2.tar,-1331.626103895115,-109.07847190928636,1838.616390519244,-5470.545206855888,2409.406777577384,3.239872618739241,1.4108152482413274,1.5921967007686766,3.875856625865457,0.017646675595549,0.0039644928666571,0.0032838274822369,-0.2630746393638807,0.0062235411610977,0.2692981805249784,-1324.8045034015497,-6.821600493565484,CCSc1nc(-c2ccc(OC)c(OC)c2)cc2nccn12,train_full
704,229,1,data/moses_wfns/archive_0_0_2.tar,-1331.637540670745,-109.10018889128224,1833.0862183881827,-5459.5960705417165,2403.9972770343256,3.1430357406083447,0.6102696775521779,-1.5009568206144637,3.5360958871939774,0.0159194589623758,0.004117703344474,0.0032806366769039,-0.2606966984421056,0.0091972848342414,0.269893983276347,-1324.8045034015497,-6.833037269195529,CCSc1nc(-c2ccc(OC)c(OC)c2)cc2nccn12,test_full_conformations
705,229,2,data/moses_wfns/archive_0_0_2.tar,-1331.6578162075432,-109.07104778124872,1839.2531351284613,-5471.917068110908,2410.101345982834,1.663553567802924,1.6377623974567077,-1.303529922223281,2.673736412140212,0.0141658509639319,0.0043947314247134,0.0034412723824711,-0.2717534995096992,-0.0041282761715657,0.2676252233381335,-1324.8045034015497,-6.85331280599371,CCSc1nc(-c2ccc(OC)c(OC)c2)cc2nccn12,train_full
706,230,0,data/moses_wfns/archive_0_0_2.tar,-908.8867924905688,-86.57667686984082,1437.632275276202,-4088.3890043236975,1828.4661966275023,-4.654682160214008,-0.3565320594966438,3.752552848873822,5.989560418399208,0.027497724313053,0.00532398056193,0.0047947602622966,-0.3016590939309412,-0.0362274856556065,0.2654316082753347,-903.2463254215488,-5.640467069020019,COc1ccccc1C(=O)Nc1ccnc2[nH]ncc12,test_full_structures
707,230,1,data/moses_wfns/archive_0_0_2.tar,-909.1680161065588,-86.55580441619097,1449.7500944265023,-4113.5215251934205,1841.178986533352,-4.5600763436036695,-2.8232628528954384,-1.1257967255586834,5.480194126425793,0.0248482005356291,0.0062635225928155,0.0050109623167709,-0.2982279322486061,0.000575145493726,0.2988030777423321,-903.2463254215488,-5.921690685009935,COc1ccccc1C(=O)Nc1ccnc2[nH]ncc12,test_full_structures
708,231,0,data/moses_wfns/archive_0_0_2.tar,-1215.217238609166,-95.94337127561384,1516.381447323659,-4674.0630985768585,2038.4295636428187,-1.7702780979797403,-3.634758953926122,7.059713236100873,8.13541075627474,0.0291538993236303,0.0067341343777776,0.0057680547776119,-0.3013906830684894,0.0199019111301631,0.3212925941986524,-1209.7856982709638,-5.431540338202012,COc1ccc2c(c1)S(=O)(=O)N=C(NC(C)C)N2,test_full_structures
709,232,0,data/moses_wfns/archive_0_0_2.tar,-3353.664162298156,-142.07904063265312,1534.257378667394,-7693.1988766303075,2947.371367354971,1.3510578467790078,0.8001700036462014,-2.002860973630366,2.5450110844100204,0.0182676487192792,0.0047314481749108,0.0037605330483799,-0.2979608358447924,-0.0007645376388889,0.2971962982059035,-3348.7048586084525,-4.959303689703575,Oc1ccc(-c2nc3cc(O)cc(Br)c3o2)cc1,train_full
710,233,0,data/moses_wfns/archive_0_0_2.tar,-847.0675983482853,-81.39429501281151,1276.139094953614,-3684.448174410141,1642.6571952825643,-0.815209505377903,-2.123757181363651,1.6859584156310503,2.8314955204430974,0.0442256038710021,0.0041495500774698,0.0040315929329536,-0.317112010914321,0.0125680459414021,0.3296800568557231,-840.9180575315917,-6.149540816693616,O=C(NC1Cc2ccccc2C1)c1ccc(F)cc1,train_full
711,233,1,data/moses_wfns/archive_0_0_2.tar,-847.0743166227661,-81.39269556979806,1319.004556392908,-3770.034426316976,1685.3708884891691,-2.5166010051602354,-1.89242344941716,0.99812936923386,3.3031514298930698,0.0248325411776038,0.00594344838253,0.0051771787698015,-0.3269575673431327,0.0187032454073702,0.3456608127505028,-840.9180575315917,-6.156259091174434,O=C(NC1Cc2ccccc2C1)c1ccc(F)cc1,train_full
712,233,2,data/moses_wfns/archive_0_0_2.tar,-847.0643845821736,-81.40586090893147,1276.0880689045948,-3684.228910686325,1642.5040218045872,-1.0502623981261736,2.202921734732508,-2.019398377657527,3.167630831072408,0.0528950029191599,0.0040174437365361,0.0039629706647001,-0.3207976192527752,0.0115791147238059,0.3323767339765811,-840.9180575315917,-6.146327050581931,O=C(NC1Cc2ccccc2C1)c1ccc(F)cc1,train_full
713,233,3,data/moses_wfns/archive_0_0_2.tar,-847.0687637847315,-81.38877192832932,1303.1334145766173,-3738.325872760531,1669.5347466466424,-1.457138461875796,1.5497799637245633,2.0912816489643715,2.983040289425372,0.0270498131857989,0.005346458319984,0.0047948624921082,-0.3233689507830998,0.0127997299879452,0.336168680771045,-840.9180575315917,-6.150706253139788,O=C(NC1Cc2ccccc2C1)c1ccc(F)cc1,train_full
714,233,4,data/moses_wfns/archive_0_0_2.tar,-847.0681249005213,-81.40292956799036,1276.5358445345926,-3685.183737479168,1643.0043642564533,-0.4162223436975128,0.5994310239527907,2.874872737460797,2.966049872889106,0.0531044197444412,0.0040193905763826,0.0039614124243394,-0.3217620255153169,0.01363186224871,0.3353938877640269,-840.9180575315917,-6.150067368929626,O=C(NC1Cc2ccccc2C1)c1ccc(F)cc1,test_full_conformations
715,234,0,data/moses_wfns/archive_0_0_2.tar,-950.4016187423896,-93.65540311192564,1694.0413412428636,-4650.81634576523,2100.0536598038007,-0.3199923386447764,0.7712369003807477,-1.98998442919976,2.158063827081523,0.0141363678674999,0.0048579918168394,0.0044568282666287,-0.3030686570203874,0.0155107021162238,0.3185793591366112,-943.2884524536264,-7.113166288763182,c1ccc(-c2cc(-c3c[nH]nc3-c3ccccn3)ccn2)cc1,train_full
716,234,1,data/moses_wfns/archive_0_0_2.tar,-950.4056516164304,-93.69256471084742,1695.5308109778969,-4653.857537543251,2101.6385598760253,-1.3635359995017209,-1.6700158765341344,-1.4757844237840656,2.6126850394368044,0.0152163541870049,0.0048009041225105,0.0042845355707465,-0.305032451641073,0.0187992324651107,0.3238316841061837,-943.2884524536264,-7.117199162804241,c1ccc(-c2cc(-c3c[nH]nc3-c3ccccn3)ccn2)cc1,train_full
717,234,2,data/moses_wfns/archive_0_0_2.tar,-950.408518254136,-93.64620185117003,1726.5838089972192,-4715.987808619717,2132.6674173454526,-0.9007016245626163,-0.5551249072731403,-1.862604817282524,2.142130664672165,0.0127658842141155,0.0060679245760851,0.0050267613464038,-0.3053957900688658,0.0167896371126652,0.322185427181531,-943.2884524536264,-7.120065800509565,c1ccc(-c2cc(-c3c[nH]nc3-c3ccccn3)ccn2)cc1,train_full
718,234,3,data/moses_wfns/archive_0_0_2.tar,-950.4163185431462,-93.65820007659076,1701.7178220797252,-4665.988878044416,2107.5384388567463,0.7453233169770275,-1.8136248076418453,-1.079044342906236,2.238097067528911,0.0156154731163869,0.0048472544822302,0.0042763004490418,-0.3073165105621869,0.0128295565250815,0.3201460670872684,-943.2884524536264,-7.127866089519898,c1ccc(-c2cc(-c3c[nH]nc3-c3ccccn3)ccn2)cc1,test_full_conformations
719,235,0,data/moses_wfns/archive_0_0_2.tar,-912.5733579100472,-88.86277243700555,1507.390065493916,-4230.127227516149,1899.0493822226551,0.2066382207964879,1.318482072281826,1.4142897249304849,1.9445590130583488,0.0193911481881778,0.0042417289765397,0.0034875385410638,-0.2845759756182631,0.016382120438874,0.3009580960571371,-905.8758190414496,-6.697538868597576,CCCC(=O)Nc1n[nH]c2cnc(-c3ccccc3)cc12,test_full_structures
720,236,0,data/moses_wfns/archive_0_0_2.tar,-1223.983959699793,-92.29299636550672,1330.731111227964,-4320.084309031641,1857.6811114472537,-0.0275632772978191,-1.9219862642088936,3.9010202894178176,4.34887919267856,0.0224183459127232,0.0088483999638479,0.0075690965717394,-0.3282283462442496,0.0154361369947946,0.3436644832390442,-1218.9999800023377,-4.983979697455879,COC1=CC(=O)OC1C(O)c1ccccc1Cl,train_full
721,236,1,data/moses_wfns/archive_0_0_2.tar,-1223.8934627460608,-92.19730600597131,1318.7218766688236,-4296.097407938601,1845.6983339806704,1.0366025135852186,0.4669168372207591,6.783602172229399,6.878213033566702,0.0180146175531292,0.0099782614100447,0.0068951562418368,-0.3237209274024319,0.0150118318483399,0.3387327592507718,-1218.9999800023377,-4.893482743723325,COC1=CC(=O)OC1C(O)c1ccccc1Cl,test_full_conformations
722,236,2,data/moses_wfns/archive_0_0_2.tar,-1223.9859439700874,-92.3373920021666,1341.126937753567,-4340.467745428938,1867.7119167538483,-0.0537458490924435,-5.482236608640754,-0.7307607524022144,5.530987084297612,0.0205250328980791,0.0095680140551242,0.0081060336119477,-0.3288484057365405,0.0169958703487281,0.3458442760852686,-1218.9999800023377,-4.985963967749967,COC1=CC(=O)OC1C(O)c1ccccc1Cl,train_full
723,237,0,data/moses_wfns/archive_0_0_2.tar,-1174.333414829407,-93.37361084740716,1399.4988318463993,-4382.338576864817,1901.9011630149048,-6.65560146693203,4.296824192847788,-0.7690632560584091,7.959345910480898,0.0329076599240658,0.0047757920173203,0.0045072378002512,-0.3260571714764557,0.033983695811796,0.3600408672882517,-1168.8771717387076,-5.456243090699445,COc1c(C)cnc(CSc2nnnn2C)c1C,train_full
724,237,1,data/moses_wfns/archive_0_0_2.tar,-1174.2760594362885,-93.41728601532708,1421.876511429229,-4427.132193356758,1924.41802037172,-5.575533749390536,0.4503378352798953,5.980168681882712,8.188516240458236,0.0292304526446189,0.0055084211572489,0.0049492048142496,-0.3092306169327394,0.0262472389579454,0.3354778558906848,-1168.8771717387076,-5.398887697580676,COc1c(C)cnc(CSc2nnnn2C)c1C,test_full_conformations
725,238,0,data/moses_wfns/archive_0_0_2.tar,-1007.534720270598,-95.93712323761297,1688.0378764343288,-4723.097151406046,2123.4852120497594,-0.3455394363388235,-2.298975075711779,1.2189872362852456,2.624997863434497,0.0226239898675933,0.0042935652851286,0.0036533414962936,-0.2755037794835661,0.007986985112515,0.2834907645960811,-1000.8042671477205,-6.730453122877634,COc1cc2ncnc(Nc3ccc(O)cc3)c2cc1OC,train_full
726,239,0,data/moses_wfns/archive_0_0_2.tar,-3368.91149809289,-140.56847342715764,1493.9233732768134,-7638.628802585989,2916.378098197254,2.61842107474575,-0.394050836968848,0.2496521877622828,2.659648698915523,0.0271038157595749,0.005025219491039,0.0043512031515759,-0.3280464885966459,-0.0084924768113472,0.3195540117852987,-3364.692626183855,-4.218871909034988,O=c1[nH]c(=O)n(C2COC(CO)O2)cc1Br,test_full_conformations
727,239,1,data/moses_wfns/archive_0_0_2.tar,-3368.893240670416,-140.51771895749778,1498.4091547825617,-7648.14298242958,2921.3743021723403,5.036994242553096,2.708352959211504,-3.679228233794812,6.800235815582842,0.0350721084521887,0.0047111838336401,0.0043692643788775,-0.3183364454368914,-0.0055040484572414,0.31283239697965,-3364.692626183855,-4.20061448656088,O=c1[nH]c(=O)n(C2COC(CO)O2)cc1Br,train_full
728,240,0,data/moses_wfns/archive_0_0_2.tar,-1983.7615064525871,-120.3512188860869,1500.277121409466,-5708.947160591349,2345.2760380868226,2.715409121216096,0.4453632937020885,1.5558135827699846,3.161068025729961,0.0164453808291887,0.0068766443951281,0.0052431102051042,-0.3041574794356894,0.0124760883889669,0.3166335678246563,-1979.5540545326264,-4.207451919960931,Nc1cnc(-c2cc(Cl)cc(Cl)c2Cl)c(N)n1,train_full
729,240,1,data/moses_wfns/archive_0_0_2.tar,-1983.7720518287765,-120.33318651099071,1496.963067080074,-5702.250849265203,2341.8648857613334,2.5761516727214,-0.6566957301446978,-1.1794642542026832,2.9084261465262338,0.0167705187774613,0.0067460278779291,0.0053427261776583,-0.2927773743097364,0.0232879613570176,0.316065335666754,-1979.5540545326264,-4.217997296150088,Nc1cnc(-c2cc(Cl)cc(Cl)c2Cl)c(N)n1,test_full_conformations
730,241,0,data/moses_wfns/archive_0_0_2.tar,-873.4008474698868,-83.65762372819131,1379.8447702641456,-3927.045370542,1757.479837093359,-0.3708216207156721,1.7319219305587563,-0.2143043604494502,1.784093216972761,0.022604291754797,0.0060447679196793,0.0049907969720924,-0.2735874786613438,0.03978430048772,0.3133717791490638,-867.4581991125408,-5.942648357346002,COc1ccc(Cc2cnc(N)nc2N)c(OC)c1,test_full_structures
731,241,1,data/moses_wfns/archive_0_0_2.tar,-873.4975541466276,-83.59679825845411,1396.927762916236,-3961.861359733048,1775.0562927424685,-1.939443940482347,-0.059282840997797,0.6915103297982748,2.059889266375303,0.0195063965462223,0.0067758215285002,0.0057601233907638,-0.2873028655956492,0.0414797285143961,0.3287825941100453,-867.4581991125408,-6.039355034086839,COc1ccc(Cc2cnc(N)nc2N)c(OC)c1,test_full_structures
732,241,2,data/moses_wfns/archive_0_0_2.tar,-873.5133024550111,-83.60649964608609,1419.1763789919428,-4006.5278003515314,1797.4684784373403,-1.091129495765802,2.3448477530075165,0.7684877082136525,2.698045203288856,0.0233225125416052,0.00655734797212,0.006373927228875,-0.2775809086508818,0.0597412887426736,0.3373221973935554,-867.4581991125408,-6.055103342470261,COc1ccc(Cc2cnc(N)nc2N)c(OC)c1,test_full_structures
733,241,3,data/moses_wfns/archive_0_0_2.tar,-873.4826537021141,-83.65664156684836,1451.627119592713,-4071.363408165192,1829.9356287221624,-2.8335153272201867,-1.3189717850177007,-0.6435760279950284,3.191032087440419,0.0285273974565254,0.0071491923392679,0.0064266723852038,-0.2822511586124049,0.056187470727389,0.3384386293397939,-867.4581991125408,-6.024454589573338,COc1ccc(Cc2cnc(N)nc2N)c(OC)c1,test_full_structures
734,241,4,data/moses_wfns/archive_0_0_2.tar,-873.4976978312653,-83.60677252456048,1405.590120103693,-3979.139578217897,1783.6819094567672,-2.1434113700695145,2.8896352423973823,-0.2356483254217828,3.605514424977709,0.0243395949506344,0.0061682202602277,0.006086440473587,-0.2884857030553929,0.0547640137977674,0.3432497168531603,-867.4581991125408,-6.039498718724531,COc1ccc(Cc2cnc(N)nc2N)c(OC)c1,test_full_structures
735,242,0,data/moses_wfns/archive_0_0_2.tar,-1010.9613070869608,-98.203903449772,1768.754705945285,-4883.863363042115,2202.3820496746234,0.3558867638185893,1.0110431440233751,0.4385458605650128,1.1580958939382555,0.0259958995466096,0.0028526137143573,0.0027223148210768,-0.2873892249480045,-0.0046026670050752,0.2827865579429293,-1003.4337607676212,-7.527546319339763,CC(=O)c1ccc(N2CCN(C(=O)c3cccnc3)CC2)cc1,test_full_scaffolds
736,242,1,data/moses_wfns/archive_0_0_2.tar,-1010.9632282986024,-98.19493074737272,1769.6530958695098,-4886.0055323753495,2203.614794476258,3.4502116223738173,-2.803022040801225,-1.2576301817079285,4.619797233031289,0.0236236130456283,0.0029024883050907,0.0028008879420345,-0.2858275053984124,-0.0036426541147772,0.2821848512836352,-1003.4337607676212,-7.529467530981151,CC(=O)c1ccc(N2CCN(C(=O)c3cccnc3)CC2)cc1,test_full_scaffolds
737,242,2,data/moses_wfns/archive_0_0_2.tar,-1010.9623813447452,-98.21619235249666,1765.2471182067216,-4877.169772340823,2199.206872937715,2.4623064142407887,1.629960551979751,-1.5092966822706808,3.3162781478239656,0.023705009622354,0.0028759155519697,0.0027513838159018,-0.2840187610861638,-0.0035920126617573,0.2804267484244065,-1003.4337607676212,-7.528620577124116,CC(=O)c1ccc(N2CCN(C(=O)c3cccnc3)CC2)cc1,test_full_scaffolds
738,242,3,data/moses_wfns/archive_0_0_2.tar,-1010.9608548004536,-98.24074169753597,1771.357916250557,-4889.227929425744,2205.180625703466,3.97360432497896,-2.9555636440008306,-0.7437067915988947,5.007792685115997,0.0231583891642513,0.002950221068943,0.002780215844999,-0.2826251313546138,-0.0055228204027971,0.2771023109518167,-1003.4337607676212,-7.527094032832338,CC(=O)c1ccc(N2CCN(C(=O)c3cccnc3)CC2)cc1,test_full_scaffolds
739,242,4,data/moses_wfns/archive_0_0_2.tar,-1010.9593012433686,-98.1983969759224,1792.8997171543174,-4932.510195098474,2226.880754961824,2.423793403768621,3.737217029194351,0.85925344208975,4.536505490484456,0.019822835957752,0.0033362124091875,0.0030599402622902,-0.286098183071969,0.0006184832243402,0.2867166662963092,-1003.4337607676212,-7.525540475747448,CC(=O)c1ccc(N2CCN(C(=O)c3cccnc3)CC2)cc1,test_full_scaffolds
740,242,5,data/moses_wfns/archive_0_0_2.tar,-1010.9621341537028,-98.24065625661922,1761.6213313593398,-4869.897080853458,2195.584869187779,1.5444050767791715,4.166855396911696,-0.373422103419693,4.4595195937764185,0.0276805936795146,0.0027570675616892,0.0026484526117656,-0.2836051478197648,-0.0040381227651145,0.2795670250546503,-1003.4337607676212,-7.5283733860816255,CC(=O)c1ccc(N2CCN(C(=O)c3cccnc3)CC2)cc1,test_full_scaffolds
741,243,0,data/moses_wfns/archive_0_0_2.tar,-962.4933542376358,-88.84659480572402,1497.519265797201,-4287.900348979163,1916.7570162997813,-2.191076990514586,-3.636775352580458,-6.099348655202293,7.4316221217993315,0.0267209606717478,0.0063378084591397,0.0055766276763015,-0.2695163542168071,0.053080913821502,0.322597268038309,-957.0321923394227,-5.461161898212936,Nc1nc2c(ncn2C2CC(O)C(CO)O2)c(=O)[nH]1,test_full_structures
742,243,1,data/moses_wfns/archive_0_0_2.tar,-962.4830586253048,-88.83780011204826,1496.43115427877,-4286.109657408128,1916.0552998037776,-2.8258826757171143,-3.803944853759408,-7.589065547811648,8.947040026530702,0.0257717573039905,0.0062184919446702,0.0055498798861226,-0.2723374288458056,0.042239231226427,0.3145766600722325,-957.0321923394227,-5.450866285882057,Nc1nc2c(ncn2C2CC(O)C(CO)O2)c(=O)[nH]1,test_full_structures
743,244,0,data/moses_wfns/archive_0_0_2.tar,-965.6472018557328,-92.01391836559554,1611.585272866644,-4511.661069687429,2026.46646116458,-2.786486946446113,-2.281591552193711,-0.5327188721153809,3.6405987022005286,0.0227770308385186,0.0047750589456869,0.0039876418484147,-0.2819776739463331,0.0071940693649555,0.2891717433112886,-959.276220029028,-6.37098182670502,COc1nc2nc(-c3noc(C)n3)cn2c2c1CCCC2,train_full
744,245,0,data/moses_wfns/archive_0_0_2.tar,-898.1662846174295,-86.25950047542095,1476.4780691060018,-4152.37245282193,1864.01245302575,2.1887727950093905,4.065401194499558,-1.3353528194858368,4.806389536119646,0.0279988141042177,0.0055373571901496,0.0050006008694344,-0.2906980993204965,0.0048494014608181,0.2955475007813146,-891.7594374829592,-6.40684713447024,COc1ccc2c(c1)C(=O)C(Cc1cccnc1)CO2,train_full
745,245,1,data/moses_wfns/archive_0_0_2.tar,-898.1748319049714,-86.30265115592798,1462.1903056982871,-4123.365355478504,1849.32729466848,0.4628132635843786,-1.6939221311809578,-1.051889676519872,2.046958767299269,0.0348600456847426,0.0049562106182106,0.0045966267032337,-0.2913550320399721,0.0023892665490616,0.2937442985890336,-891.7594374829592,-6.415394422012128,COc1ccc2c(c1)C(=O)C(Cc1cccnc1)CO2,test_full_conformations