,MOSES id,CONFORMER id,archive name,DFT TOTAL ENERGY,DFT XC ENERGY,DFT NUCLEAR REPULSION ENERGY,DFT ONE-ELECTRON ENERGY,DFT TWO-ELECTRON ENERGY,DFT DIPOLE X,DFT DIPOLE Y,DFT DIPOLE Z,DFT TOTAL DIPOLE,DFT ROT CONSTANT A,DFT ROT CONSTANT B,DFT ROT CONSTANT C,DFT HOMO,DFT LUMO,DFT HOMO-LUMO GAP,DFT ATOMIC ENERGY,DFT FORMATION ENERGY,SMILES,SPLITS
281,90,0,data/moses_wfns/archive_0_0_0.tar,-1337.2887744410712,-106.61824461190028,1772.6621194733978,-5345.930460137728,2342.623611497275,-0.1385072573694945,-1.6578751511263936,1.4726809497216111,2.221828854061296,0.0111693846597883,0.0065824177428346,0.004268107644048,-0.2945393664049885,-0.0107920206775645,0.283747345727424,-1330.90835794314,-6.380416497931037,C#CCN1C(=O)CN=C(c2ccccc2)c2cc(Cl)ccc21,test_full_conformations
282,90,1,data/moses_wfns/archive_0_0_0.tar,-1337.3794847136407,-106.67863040457549,1800.433056910799,-5401.469650300908,2370.362027065023,0.5825969237589453,-1.7861973061666805,-1.191082949756782,2.2245445793087195,0.010122445350106,0.007300585847286,0.0052391599052725,-0.3083070403661909,-0.0100143612324563,0.2982926791337346,-1330.90835794314,-6.471126770500632,C#CCN1C(=O)CN=C(c2ccccc2)c2cc(Cl)ccc21,train_full
283,90,2,data/moses_wfns/archive_0_0_0.tar,-1337.23077276594,-106.78483746586312,1818.797291877722,-5439.018622103434,2389.802579138225,-0.6235465302437033,0.7004490341246437,-1.053682843555955,1.4105625330304472,0.0102117256161872,0.0077337931120065,0.0050211569459295,-0.2659983640392142,0.0017388315024581,0.2677371955416723,-1330.90835794314,-6.3224148227998285,C#CCN1C(=O)CN=C(c2ccccc2)c2cc(Cl)ccc21,train_full
284,91,0,data/moses_wfns/archive_0_0_0.tar,-1473.213092399824,-117.37346178988,1956.036626262335,-5902.449417107774,2590.6015036076724,3.997112731668474,-1.023215713601176,0.7344610435682961,4.1908607243316975,0.0188445500414334,0.0025607082783618,0.0025398794562169,-0.300078824435785,0.037378092687438,0.337456917123223,-1466.0303443556438,-7.182748044180244,CC(C)(Oc1ccc(Cl)cc1)C(=O)OCc1cccc(CO)n1,train_full
285,91,1,data/moses_wfns/archive_0_0_0.tar,-1473.2421028626131,-117.38128320447834,1930.2065489230388,-5850.356737169639,2564.3169558783766,4.089362828422534,2.536941505942828,-2.346124443845574,5.353808032892953,0.0227568453608487,0.0023430230614276,0.0022915181477235,-0.3136499404213212,0.0310181925874072,0.3446681330087284,-1466.0303443556438,-7.211758506969318,CC(C)(Oc1ccc(Cl)cc1)C(=O)OCc1cccc(CO)n1,train_full
286,91,2,data/moses_wfns/archive_0_0_0.tar,-1473.2384612844253,-117.39495079351975,1954.131672435404,-5897.923092959212,2587.976849704842,-0.5776113853380666,2.404489196585999,-0.3824080590321329,2.502286780643591,0.026273659012741,0.0023973164856244,0.0023763565998922,-0.3219255595134455,0.0395534887025602,0.3614790482160057,-1466.0303443556438,-7.208116928781465,CC(C)(Oc1ccc(Cl)cc1)C(=O)OCc1cccc(CO)n1,train_full
287,91,3,data/moses_wfns/archive_0_0_0.tar,-1473.2338491853957,-117.35659654894326,1955.757517569757,-5902.192596418212,2590.5861435073284,2.0420262437062324,0.0624780371643652,-0.0022615912590455,2.042983064028657,0.0236639539374035,0.0024876937946913,0.0024611251283526,-0.3136647098600564,0.0417075365971545,0.3553722464572109,-1466.0303443556438,-7.203504829751637,CC(C)(Oc1ccc(Cl)cc1)C(=O)OCc1cccc(CO)n1,train_full
288,91,4,data/moses_wfns/archive_0_0_0.tar,-1473.2266367656684,-117.40885882580054,1953.689898239143,-5897.061121279863,2587.5824703510334,1.3179631032042012,-0.6542757054711452,4.006196246188884,4.267869703160502,0.0210915039968257,0.0024875153381748,0.0023322779942278,-0.3055408251427868,0.0446571650790199,0.3501979902218067,-1466.0303443556438,-7.1962924100246255,CC(C)(Oc1ccc(Cl)cc1)C(=O)OCc1cccc(CO)n1,test_full_conformations
289,91,5,data/moses_wfns/archive_0_0_0.tar,-1473.2505961828224,-117.40870922884804,1973.7567223270623,-5937.843806946592,2608.2742770732475,1.447676022805578,0.1191625938755297,-0.1109364330439448,1.4568021426953746,0.0169031112060824,0.0028472644325937,0.0025974615843871,-0.3199553853992058,0.0414127534332401,0.3613681388324459,-1466.0303443556438,-7.220251827178572,CC(C)(Oc1ccc(Cl)cc1)C(=O)OCc1cccc(CO)n1,train_full
290,91,6,data/moses_wfns/archive_0_0_0.tar,-1473.2400182593465,-117.38922631969308,1959.953349804725,-5909.869312301862,2594.0934175371403,0.7398293219361916,1.3112656596569638,-0.8742071174151728,1.7409776391245018,0.0165223046850689,0.0027442950619197,0.0025426158524958,-0.3048924755963361,0.0369417688129345,0.3418342444092705,-1466.0303443556438,-7.209673903702651,CC(C)(Oc1ccc(Cl)cc1)C(=O)OCc1cccc(CO)n1,train_full
291,91,7,data/moses_wfns/archive_0_0_0.tar,-1473.2533495100524,-117.37177181793317,1971.033683899632,-5931.285464338358,2604.400384774792,-2.003628974143,-2.3727610434699584,0.2010431627322699,3.1120640078114348,0.0289353840318473,0.0024697662532474,0.0024080359688055,-0.3256897502326026,0.0360253993388959,0.3617151495714985,-1466.0303443556438,-7.223005154408611,CC(C)(Oc1ccc(Cl)cc1)C(=O)OCc1cccc(CO)n1,train_full
292,91,8,data/moses_wfns/archive_0_0_0.tar,-1473.2459984470725,-117.35632535905472,2022.6632518761933,-6034.594140504212,2656.071516743341,-0.1272666414252216,-1.7744249135012211,3.760775557528966,4.160314094606413,0.0133110609143481,0.0034695420208855,0.0029996600154207,-0.3096851239818491,0.0307838169935829,0.340468940975432,-1466.0303443556438,-7.215654091428632,CC(C)(Oc1ccc(Cl)cc1)C(=O)OCc1cccc(CO)n1,test_full_conformations
293,91,9,data/moses_wfns/archive_0_0_0.tar,-1473.2379281871083,-117.40554852698868,1956.6165344460728,-5903.465398031654,2591.045542284926,1.937556329873604,-0.085283563609892,1.1708838549604983,2.265472758490472,0.0192349806486575,0.0026093801760635,0.0024403013550474,-0.3199129718891654,0.0383531929552455,0.3582661648444109,-1466.0303443556438,-7.207583831464717,CC(C)(Oc1ccc(Cl)cc1)C(=O)OCc1cccc(CO)n1,train_full
294,91,10,data/moses_wfns/archive_0_0_0.tar,-1473.2368767921416,-117.38797210488488,1995.93917935298,-5981.610038002029,2629.850349500244,0.5558282525097875,1.5886253879980932,-0.43815097677972,1.7391526523376837,0.0152839841942921,0.0032246014931356,0.0028865128763997,-0.3108715263380933,0.0247786540890487,0.335650180427142,-1466.0303443556438,-7.20653243649781,CC(C)(Oc1ccc(Cl)cc1)C(=O)OCc1cccc(CO)n1,train_full
295,91,11,data/moses_wfns/archive_0_0_0.tar,-1473.229767324074,-117.40488687562734,1974.9247265749136,-5939.499752859178,2608.7793051012054,1.7740775598813865,-1.495052567461944,-1.7985647324927885,2.935535464768924,0.01834667729885,0.0026992628664477,0.0026266547610266,-0.3026150065157973,0.0296692342713834,0.3322842407871807,-1466.0303443556438,-7.199422968430326,CC(C)(Oc1ccc(Cl)cc1)C(=O)OCc1cccc(CO)n1,train_full
296,91,12,data/moses_wfns/archive_0_0_0.tar,-1473.2465829355076,-117.3955010592292,1939.857371625427,-5869.280492232793,2573.599582149322,3.3014525401889787,-3.415616794198607,2.5142813412541902,5.374722097272639,0.020426249782124,0.0024574118091886,0.0023116793041983,-0.3004939097348525,0.0252511416584958,0.3257450513933483,-1466.0303443556438,-7.216238579863784,CC(C)(Oc1ccc(Cl)cc1)C(=O)OCc1cccc(CO)n1,train_full
297,91,13,data/moses_wfns/archive_0_0_0.tar,-1473.2307823487104,-117.40559255210783,1996.7007047590075,-5983.972671852484,2631.476148678292,2.336919083437277,3.8999696039335374,1.9625795078836696,4.952037160493017,0.0162019282770894,0.0031186798175502,0.0027421656436513,-0.3156587532205823,0.0429672381369081,0.3586259913574904,-1466.0303443556438,-7.200437993066544,CC(C)(Oc1ccc(Cl)cc1)C(=O)OCc1cccc(CO)n1,train_full
298,91,14,data/moses_wfns/archive_0_0_0.tar,-1473.240632700816,-117.36782934680292,1952.920708093318,-5895.352991044609,2586.588304422217,0.43019544282731,1.7452185241382785,-0.5190463802632496,1.87089950582311,0.0195802641064305,0.0025622223464125,0.0024871798245662,-0.3226561383652399,0.0267511317794568,0.3494072701446967,-1466.0303443556438,-7.210288345172103,CC(C)(Oc1ccc(Cl)cc1)C(=O)OCc1cccc(CO)n1,train_full
299,91,15,data/moses_wfns/archive_0_0_0.tar,-1473.2119195126068,-117.37516727465264,1979.668034933003,-5949.930549007336,2614.4543130671627,3.2547077245565736,3.4905790595728403,2.9324380926552127,5.6014692457133055,0.0169548766433918,0.0028925650113259,0.0026612752906938,-0.3007132532503362,0.0341483682717451,0.3348616215220813,-1466.0303443556438,-7.181575156962936,CC(C)(Oc1ccc(Cl)cc1)C(=O)OCc1cccc(CO)n1,train_full
300,91,16,data/moses_wfns/archive_0_0_0.tar,-1473.2372993839183,-117.3922799493211,1921.25656079068,-5832.249325456254,2555.1750946356765,2.614914470467449,0.2838452613926894,3.0461632352676054,4.024606350461017,0.0154551572193297,0.0024843297888718,0.0022562437091527,-0.3155263628178109,0.0323639208755345,0.3478902836933454,-1466.0303443556438,-7.2069550282744785,CC(C)(Oc1ccc(Cl)cc1)C(=O)OCc1cccc(CO)n1,train_full
301,91,17,data/moses_wfns/archive_0_0_0.tar,-1473.243561846563,-117.36535895569769,1909.3651776627628,-5807.585071946676,2542.3707623788623,0.1876895474426336,2.3462761144775173,-4.024140790279475,4.661968261536972,0.0312661257906374,0.0020986061670389,0.0020465506785818,-0.3232677897908353,0.0240725125406153,0.3473403023314506,-1466.0303443556438,-7.213217490918851,CC(C)(Oc1ccc(Cl)cc1)C(=O)OCc1cccc(CO)n1,train_full
302,91,18,data/moses_wfns/archive_0_0_0.tar,-1473.2327378647046,-117.36858077842668,1995.2038362551075,-5980.300537858693,2629.2618062028023,1.2791382884603164,-4.553292968817585,0.6661577597657561,4.7762367803308265,0.0110897863025893,0.0035521459191618,0.0029161086499695,-0.3124928615461918,0.0398056350906552,0.352298496636847,-1466.0303443556438,-7.202393509060812,CC(C)(Oc1ccc(Cl)cc1)C(=O)OCc1cccc(CO)n1,train_full
303,91,19,data/moses_wfns/archive_0_0_0.tar,-1473.236866761156,-117.3882007216555,2030.829226474504,-6051.425334953994,2664.777684731428,0.9515530909020826,-2.237021985529286,1.0638437410881083,2.6535794983378653,0.0101921378989609,0.0041273466818698,0.0032293296222355,-0.3028640865912557,0.0420081227761408,0.3448722093673965,-1466.0303443556438,-7.206522405512032,CC(C)(Oc1ccc(Cl)cc1)C(=O)OCc1cccc(CO)n1,train_full
304,91,20,data/moses_wfns/archive_0_0_0.tar,-1473.235360083952,-117.3539491302592,2014.574923020513,-6018.798803916793,2648.372362410017,-1.7845799705667076,0.5322346062825621,2.663476197443261,3.2499391997111946,0.0100279020032726,0.0041794783990066,0.0031486656464794,-0.3221914492393321,0.0383268027900323,0.3605182520293644,-1466.0303443556438,-7.205015728308126,CC(C)(Oc1ccc(Cl)cc1)C(=O)OCc1cccc(CO)n1,train_full
305,91,21,data/moses_wfns/archive_0_0_0.tar,-1473.2334427133703,-117.38984630339247,1992.4132504242748,-5974.385162263863,2626.157934723063,0.1339611096804908,-3.736723070437658,-1.9910578132593693,4.236195946812311,0.0124491713970427,0.0033127637683779,0.0028253549717123,-0.3184725101636217,0.0359558770771882,0.3544283872408099,-1466.0303443556438,-7.203098357726503,CC(C)(Oc1ccc(Cl)cc1)C(=O)OCc1cccc(CO)n1,train_full
306,91,22,data/moses_wfns/archive_0_0_0.tar,-1473.2242295783888,-117.394584580916,2045.5577893262475,-6081.679190171382,2680.32098190338,2.938027202155265,-2.706807315672557,-1.3133852312906118,4.2052099175374185,0.0082768019243955,0.0054973681842016,0.0037047808813425,-0.3097867389088054,0.0388714537109335,0.3486581926197389,-1466.0303443556438,-7.193885222744939,CC(C)(Oc1ccc(Cl)cc1)C(=O)OCc1cccc(CO)n1,train_full
307,91,23,data/moses_wfns/archive_0_0_0.tar,-1473.231937731874,-117.39316700982435,1976.066772738708,-5942.614543648045,2610.7382430001007,3.4999934400232613,-0.2211283404701711,0.8926190495477306,3.618787171246805,0.0201360483417256,0.0027600227419583,0.002573182562901,-0.3200471926798763,0.0418833836446087,0.361930576324485,-1466.0303443556438,-7.201593376230221,CC(C)(Oc1ccc(Cl)cc1)C(=O)OCc1cccc(CO)n1,train_full
308,92,0,data/moses_wfns/archive_0_0_0.tar,-819.1995042213281,-80.11623461819302,1397.4861152751805,-3885.862992380708,1749.3198249798488,-1.04026473061834,-6.813998919252636,1.3161305388461606,7.017473304304621,0.0164975289357817,0.0110842580739975,0.0071359689961402,-0.2788880684393703,0.0144820943743038,0.2933701628136741,-813.0528116082304,-6.146692613097684,Cc1c2c(cn1C)NC(=O)CN=C2c1ccccc1,train_full
309,93,0,data/moses_wfns/archive_0_0_0.tar,-874.4696181537216,-85.12995453276494,1544.4027553108442,-4253.010449511643,1919.296782426091,-0.9653254275547354,-3.435941159722757,1.9801108855463765,4.08146835749341,0.0168255633338336,0.009637986062193,0.0066226019484839,-0.2919707059455344,-0.0025195087640301,0.2894511971815043,-868.0777196989771,-6.391898454744478,CCn1nc(C)c2c1C(c1ccccc1)=NCC(=O)N2,train_full
310,93,1,data/moses_wfns/archive_0_0_0.tar,-874.4949895329968,-85.06789761229567,1541.6433080163697,-4247.426043419298,1916.3836214917628,-0.7242072902153142,-3.9150224227124695,0.8081889933516463,4.062640301394793,0.0154589254235874,0.0095878911074886,0.0072425959724614,-0.2922929827067942,-0.002137409253334,0.2901555734534602,-868.0777196989771,-6.417269834019635,CCn1nc(C)c2c1C(c1ccccc1)=NCC(=O)N2,train_full
311,93,2,data/moses_wfns/archive_0_0_0.tar,-874.487257278707,-85.05745939380304,1541.8400709100415,-4247.8490716817405,1916.6072365250109,-0.970684258765872,-3.967545250325149,-0.6863217157180753,4.141820945074727,0.0156622758951797,0.0095397980649905,0.0071748439808849,-0.2899052700960422,-0.0031111897260289,0.2867940803700133,-868.0777196989771,-6.409537579729886,CCn1nc(C)c2c1C(c1ccccc1)=NCC(=O)N2,test_full_conformations
312,94,0,data/moses_wfns/archive_0_0_0.tar,-1084.8841289890709,-103.93838478468903,1951.490700881068,-5352.873699202909,2420.466041525824,3.0943710978059027,-0.4945903419736051,-6.507115763536697,7.222347793991774,0.0202315332472207,0.003434165572929,0.0033053167139229,-0.2578806269955768,0.0291418740602606,0.2870225010558374,-1077.4054523493976,-7.478676639673267,Cc1c(NC(=O)c2ccccc2O)c(=O)n(-c2ccccc2)n1C,test_full_conformations
313,94,1,data/moses_wfns/archive_0_0_0.tar,-1084.8836853846556,-103.94947816119168,1961.3638504773664,-5372.322307366401,2430.053495006064,1.9370042626330144,-0.2128657679995164,-6.678882793779755,6.957353859168855,0.0198376118658737,0.0035186641668033,0.0033459939757497,-0.2576480035282845,0.0250639654704969,0.2827119689987813,-1077.4054523493976,-7.478233035257972,Cc1c(NC(=O)c2ccccc2O)c(=O)n(-c2ccccc2)n1C,train_full
314,95,0,data/moses_wfns/archive_0_0_0.tar,-1307.3784133158858,-104.34798006250386,1735.650157180723,-5236.607584469047,2297.949860059264,-5.332096837760044,-2.596018588243374,6.90351656145933,9.101049945588644,0.0130180705261537,0.0071900239124881,0.0053417941323648,-0.3106707020984163,0.0002283102552682,0.3108990123536845,-1301.603719187451,-5.7746941284349305,CCn1ccc(NS(=O)(=O)c2ccc(N)cc2)nc1=O,test_full_conformations
315,95,1,data/moses_wfns/archive_0_0_0.tar,-1307.3806292076738,-104.295859313841,1705.620857927143,-5175.323572835853,2266.641027055232,4.208147348698273,-7.934606632118123,5.214453731791817,10.385423161133437,0.0146588657333483,0.0058487412342743,0.0048736819295386,-0.3021233263820183,-0.0012216229417059,0.3009017034403123,-1301.603719187451,-5.776910020222886,CCn1ccc(NS(=O)(=O)c2ccc(N)cc2)nc1=O,train_full
316,95,2,data/moses_wfns/archive_0_0_0.tar,-1307.3685145891732,-104.30708277107465,1721.567752014937,-5208.508052684452,2283.9014875681173,-4.452115735994126,2.402728956884793,7.831289921578084,9.323279616248229,0.01459142111762,0.0064914220036618,0.0051261458772571,-0.31253594627241,-0.0027388225125047,0.3097971237599053,-1301.603719187451,-5.764795401722267,CCn1ccc(NS(=O)(=O)c2ccc(N)cc2)nc1=O,train_full
317,96,0,data/moses_wfns/archive_0_0_0.tar,-1192.9697350939584,-94.06163775755574,1448.0325555798547,-4506.917545229942,1959.995631939824,-1.0389342456715993,-8.640439093743035,-0.2360062665486005,8.705875662870588,0.0154661472704364,0.0090082382249585,0.0064968042325082,-0.3017997609770691,0.0180569540759859,0.319856715053055,-1187.823955229737,-5.145779864221368,Cc1cnc(NS(=O)(=O)c2ccc(N)cc2)nc1,train_full
318,96,1,data/moses_wfns/archive_0_0_0.tar,-1192.9434887782538,-94.04682412887956,1435.8222282822192,-4482.411405908482,1947.710731195178,-1.38021833638651,-6.960043284083683,3.777635887333361,8.038515912137317,0.0160058305333619,0.0084090621814641,0.0062013485255442,-0.318586635399365,0.01088896536313,0.329475600762495,-1187.823955229737,-5.119533548516756,Cc1cnc(NS(=O)(=O)c2ccc(N)cc2)nc1,test_full_conformations
319,97,0,data/moses_wfns/archive_0_0_0.tar,-1153.649203594542,-89.85693529134387,1313.1246116336058,-4184.402289449985,1807.501785442037,-3.659592048516522,0.5061633764021409,-6.195166112574041,7.213106022204437,0.0212809665130142,0.0092048225295491,0.0074567845175426,-0.3246562468869562,0.0020495161348588,0.326705763021815,-1149.0208693705324,-4.628334224009677,Nc1ccc(S(=O)(=O)Nc2cnccn2)cc1,test_full_conformations
320,97,1,data/moses_wfns/archive_0_0_0.tar,-1153.6488707156875,-89.86500716784535,1308.6650019120334,-4175.316632162367,1802.8840127517776,-1.01174628112198,-6.042277025933135,-2.4819932301712275,6.610070543504005,0.0209476726331391,0.009069756764566,0.0073488298570262,-0.3293770219371292,0.0006791487415357,0.3300561706786649,-1149.0208693705324,-4.628001345155326,Nc1ccc(S(=O)(=O)Nc2cnccn2)cc1,train_full
321,97,2,data/moses_wfns/archive_0_0_0.tar,-1153.6723056308758,-89.89238752743562,1324.3605221871635,-4207.436782237401,1819.312599159308,-4.039489114853313,1.851235174441856,-6.086374023538671,7.535814006098842,0.0208289054406853,0.0098441279426446,0.0076835652601452,-0.3074147424250546,0.0092802170964187,0.3166949595214733,-1149.0208693705324,-4.6514362603434165,Nc1ccc(S(=O)(=O)Nc2cnccn2)cc1,train_full
322,98,0,data/moses_wfns/archive_0_0_0.tar,-1366.4174014065989,-109.5015482946414,1933.4116711778008,-5711.256985179469,2520.954882370763,-5.571240854065463,2.7996467418207547,4.552255507543332,7.720089166515775,0.0125598478538944,0.007222364901975,0.0057314402644483,-0.309572102712805,0.0120676824659933,0.3216397851787983,-1360.358575054417,-6.058826352181541,CC(=O)N(c1onc(C)c1C)S(=O)(=O)c1ccc(N)cc1,train_full
323,98,1,data/moses_wfns/archive_0_0_0.tar,-1366.4428070738315,-109.4861140660701,1948.9586301183529,-5742.049297933048,2536.1607440801185,-3.866613967104052,8.181029126280759,-3.6546446018988967,9.758912249930676,0.0118150367234427,0.0084765374416762,0.0060167151252034,-0.3240362216236753,0.0033411122363061,0.3273773338599814,-1360.358575054417,-6.08423201941423,CC(=O)N(c1onc(C)c1C)S(=O)(=O)c1ccc(N)cc1,train_full
324,98,2,data/moses_wfns/archive_0_0_0.tar,-1366.4441487075037,-109.48528118826368,1921.87533371866,-5688.597095149415,2509.789250726489,-0.9879449148603786,-4.538395310942237,-4.250433342457535,6.295970993568482,0.023347874789957,0.0052747296867721,0.005087911226824,-0.3069977719940771,0.0121190250520064,0.3191167970460835,-1360.358575054417,-6.085573653086385,CC(=O)N(c1onc(C)c1C)S(=O)(=O)c1ccc(N)cc1,train_full
325,98,3,data/moses_wfns/archive_0_0_0.tar,-1366.4324207467198,-109.48455664610437,1928.3391299150264,-5700.843787827649,2515.5825919275912,-3.11402533674366,1.3158689395217598,-1.0544432438280609,3.541259015990532,0.0140536310680219,0.0070796814130394,0.0057694197230836,-0.3286787521904136,0.0031116996610677,0.3317904518514813,-1360.358575054417,-6.073845692302484,CC(=O)N(c1onc(C)c1C)S(=O)(=O)c1ccc(N)cc1,test_full_conformations
326,98,4,data/moses_wfns/archive_0_0_0.tar,-1366.3992242491356,-109.50311710284036,1924.9332116136704,-5694.348575222424,2512.544434388657,-1.5147660796449862,0.8593406500424774,3.4972528325190773,3.906886228625192,0.0199592617758755,0.0055624573343673,0.0052614156994002,-0.3147330814110927,0.0200594748379152,0.3347925562490079,-1360.358575054417,-6.0406491947182985,CC(=O)N(c1onc(C)c1C)S(=O)(=O)c1ccc(N)cc1,train_full