,MOSES id,CONFORMER id,archive name,DFT TOTAL ENERGY,DFT XC ENERGY,DFT NUCLEAR REPULSION ENERGY,DFT ONE-ELECTRON ENERGY,DFT TWO-ELECTRON ENERGY,DFT DIPOLE X,DFT DIPOLE Y,DFT DIPOLE Z,DFT TOTAL DIPOLE,DFT ROT CONSTANT A,DFT ROT CONSTANT B,DFT ROT CONSTANT C,DFT HOMO,DFT LUMO,DFT HOMO-LUMO GAP,DFT ATOMIC ENERGY,DFT FORMATION ENERGY,SMILES,SPLITS
931,288,0,data/moses_wfns/archive_0_0_2.tar,-880.568211754279,-87.17963866416598,1503.2966834792253,-4178.330681183252,1881.6726197214164,-1.0720720191400757,1.0074312306956077,4.3513904723990295,4.593349011569772,0.0251719377516486,0.0040147233940323,0.0036590737126442,-0.2631714562731451,0.0545092944752583,0.3176807507484034,-873.4321745783658,-7.136037175913202,O=C(Cc1ccccc1)NCCc1c[nH]c2ccccc12,train_full
932,288,1,data/moses_wfns/archive_0_0_2.tar,-880.5649890986234,-87.1955861279535,1451.9962837494506,-4075.316950132203,1829.9769687272924,1.6587596407261334,-0.4762724925137509,-0.4168575434238184,1.775412415281726,0.0439571158057728,0.002873423952329,0.0027781034268119,-0.2743985270425293,0.047837436666896,0.3222359637094253,-873.4321745783658,-7.132814520257625,O=C(Cc1ccccc1)NCCc1c[nH]c2ccccc12,train_full
933,288,2,data/moses_wfns/archive_0_0_2.tar,-880.5537214258442,-87.24980809767122,1486.5785847093034,-4144.740152167784,1864.8841204344908,0.1267131685538119,2.7296006141000704,1.632804190364056,3.183209899401993,0.0294109963684448,0.0034986400817961,0.003362076267222,-0.2569798651924144,0.0549426345995843,0.3119224997919987,-873.4321745783658,-7.121546847478385,O=C(Cc1ccccc1)NCCc1c[nH]c2ccccc12,train_full
934,288,3,data/moses_wfns/archive_0_0_2.tar,-880.5742251117118,-87.21914417389185,1531.516586646298,-4234.40947342797,1909.565858788047,0.6947125820241896,0.2994131432922788,-3.414735743856264,3.497526840836032,0.0292942414819597,0.0042919887626012,0.0039938789219874,-0.2714282351808703,0.0540716694518016,0.3254999046326718,-873.4321745783658,-7.142050533346037,O=C(Cc1ccccc1)NCCc1c[nH]c2ccccc12,train_full
935,288,4,data/moses_wfns/archive_0_0_2.tar,-880.5577241073025,-87.209699176242,1571.8262389263944,-4315.452987431381,1950.308240274247,-4.218307480669371,0.399503528899096,1.757202388518919,4.587099443579854,0.0287955942663314,0.0047731795911915,0.0047150520729236,-0.2515385992509115,0.0490131414976069,0.3005517407485183,-873.4321745783658,-7.1255495289367445,O=C(Cc1ccccc1)NCCc1c[nH]c2ccccc12,train_full
936,288,5,data/moses_wfns/archive_0_0_2.tar,-880.5703568122575,-87.21587608646188,1547.2185393045784,-4265.946817556793,1925.4025331798773,-0.0725880893449914,-1.162826808149895,3.323276782929536,3.5215910881908634,0.0297735448718265,0.0045032258632549,0.0041703785087285,-0.2694026450740481,0.0524977819445069,0.321900427018555,-873.4321745783658,-7.138182233891712,O=C(Cc1ccccc1)NCCc1c[nH]c2ccccc12,train_full
937,288,6,data/moses_wfns/archive_0_0_2.tar,-880.5707568381456,-87.22642676595841,1492.8894797812486,-4157.014095222483,1870.8073021495263,-2.669867031425305,0.936033567627992,3.737539476588949,4.687595347753361,0.0281454399036939,0.0036055477909554,0.0035394128801778,-0.26541717678548,0.0458575990764593,0.3112747758619393,-873.4321745783658,-7.13858225977981,O=C(Cc1ccccc1)NCCc1c[nH]c2ccccc12,train_full
938,288,7,data/moses_wfns/archive_0_0_2.tar,-880.5602868566996,-87.15519887334574,1564.005164348294,-4300.125199904691,1942.743350506233,-2.366031133392376,-1.5924810366334736,2.962266605032117,4.112070356342136,0.0194998320614424,0.0054210832900723,0.0048961668966197,-0.2545404662475995,0.0584305743252001,0.3129710405727996,-873.4321745783658,-7.128112278333788,O=C(Cc1ccccc1)NCCc1c[nH]c2ccccc12,train_full
939,288,8,data/moses_wfns/archive_0_0_2.tar,-880.5651977900895,-87.21113736545824,1553.8797911891938,-4279.291269874204,1932.0864660005648,1.3754481959762594,-2.8915894056299623,3.4172557948637,4.683031517948104,0.0248887452508048,0.0048428075451467,0.0044358811024936,-0.2649562521520505,0.0520246130479978,0.3169808652000483,-873.4321745783658,-7.133023211723753,O=C(Cc1ccccc1)NCCc1c[nH]c2ccccc12,train_full
940,288,9,data/moses_wfns/archive_0_0_2.tar,-880.5733891153756,-87.16964337227046,1484.8907933687915,-4141.275963836508,1863.0083054856448,0.1776746008649671,0.6187578406121368,0.9715396956432706,1.165469394416747,0.030983267661311,0.00349066259057,0.0033357103334429,-0.2684553153420497,0.0531899804381046,0.3216452957801543,-873.4321745783658,-7.141214537009773,O=C(Cc1ccccc1)NCCc1c[nH]c2ccccc12,test_full_conformations
941,289,0,data/moses_wfns/archive_0_0_2.tar,-1017.1306777912602,-99.26322724683683,1903.4635127122035,-5162.281802914196,2340.987841224046,3.939018202305627,4.301727088445359,-0.6227918210416963,5.865883564640204,0.014311400374575,0.0042246473484484,0.0035856470560139,-0.286119256439613,0.0384535582706879,0.3245728147103009,-1009.1736815773056,-7.956996213954426,COc1ccc(C2(C#N)CCC(=O)CC2)cc1OC1CCCC1,train_full
942,289,1,data/moses_wfns/archive_0_0_2.tar,-1017.1628644333985,-99.28319986996686,1907.3212399000129,-5169.885959267056,2344.7226153983606,5.269532730195017,-0.2625486274021888,-1.7712257786354533,5.5654422766973415,0.0162199730821762,0.0039784669252851,0.0034107711692074,-0.292519853932941,0.0349739908223308,0.3274938447552717,-1009.1736815773056,-7.9891828560926115,COc1ccc(C2(C#N)CCC(=O)CC2)cc1OC1CCCC1,train_full
943,289,2,data/moses_wfns/archive_0_0_2.tar,-1017.0928782978882,-99.25875515411184,1906.3108652119345,-5167.813185241235,2343.7055463146785,2.7178135130477017,-0.7073825242424476,-3.474279636718432,4.4673839460499325,0.0175879574518747,0.0038775595624221,0.003592141888224,-0.2828073110182839,0.0483863925684233,0.3311937035867072,-1009.1736815773056,-7.919196720582477,COc1ccc(C2(C#N)CCC(=O)CC2)cc1OC1CCCC1,train_full
944,289,3,data/moses_wfns/archive_0_0_2.tar,-1017.129367253788,-99.31412077976702,1912.9144285673613,-5181.208694616153,2350.516597350558,3.8299754743622914,2.89757784461121,-0.8916853595965575,4.884646587043657,0.016640060351639,0.004003531951733,0.003633400192345,-0.2911309532488907,0.0412258895079011,0.3323568427567918,-1009.1736815773056,-7.95568567648229,COc1ccc(C2(C#N)CCC(=O)CC2)cc1OC1CCCC1,test_full_conformations
945,290,0,data/moses_wfns/archive_0_0_2.tar,-932.4389698021048,-89.9380834651417,1572.8961479378145,-4389.211339845335,1973.8370623222504,2.8914941174939885,3.7065903386247534,-0.272957076623826,4.708933609169675,0.012767661669439,0.0074437535938183,0.0048153979019183,-0.2784935268873905,0.0085454192674225,0.2870389461548129,-925.8275890492116,-6.611380752893069,COCC(=O)Nc1ccccc1-c1nc2ccccc2[nH]1,test_full_conformations
946,290,1,data/moses_wfns/archive_0_0_2.tar,-932.453856022322,-89.94036361723498,1562.713855021233,-4369.076612853574,1963.871802031412,-4.313695413515946,-1.065521784203402,-0.79344555207395,4.513630538414331,0.0144343620736517,0.0063485542032489,0.0044801513711553,-0.2909790344674219,0.0045619030589979,0.2955409375264198,-925.8275890492116,-6.626266973110205,COCC(=O)Nc1ccccc1-c1nc2ccccc2[nH]1,train_full
947,291,0,data/moses_wfns/archive_0_0_2.tar,-837.8977598949898,-80.69229567942712,1318.6968308756816,-3754.482496773187,1678.5984345642714,3.147297889553242,-0.4393654092443913,0.2638516211867018,3.188752678780472,0.0217501366533771,0.0080669854663327,0.0059017973801833,-0.2969824293579781,-0.0040633683747475,0.2929190609832305,-831.9995950992603,-5.898164795729485,CC(=O)Nc1ccccc1-c1nc2ccccc2o1,train_full
948,292,0,data/moses_wfns/archive_0_0_2.tar,-1104.7751198947317,-104.9409628832966,2034.6311125511504,-5547.070718964949,2512.6334816725466,-0.652440708040881,-3.705589049536601,-2.58383599490524,4.56434853293681,0.0104088129046865,0.0064066852881123,0.0042970124001555,-0.3096211982817387,-0.0300789334421844,0.2795422648395543,-1097.3572223571596,-7.417897537571889,CCOC(=O)c1c(O)c2cccnc2n(Cc2ccccc2)c1=O,test_full_conformations
949,292,1,data/moses_wfns/archive_0_0_2.tar,-1104.7666039786766,-104.91181747170003,2023.7927776561896,-5525.517947289378,2501.89837576825,1.5183343382307222,-6.168001067310863,-0.5055235152074806,6.3722154980372565,0.0115928504916179,0.0057487773856388,0.0041735631821187,-0.2886454645980265,-0.0242131265052338,0.2644323380927926,-1097.3572223571596,-7.409381621517014,CCOC(=O)c1c(O)c2cccnc2n(Cc2ccccc2)c1=O,train_full
950,293,0,data/moses_wfns/archive_0_0_2.tar,-1425.3271981677806,-115.83935088835804,2004.5978007872,-5930.788592713597,2616.729496918089,2.34572319043063,4.817885534602608,-0.7868142556790012,5.416042372766005,0.0101204313594801,0.0051135513751566,0.003697185069781,-0.3271451686673088,0.0015758686829936,0.3287210373503024,-1418.727964991088,-6.599233176692451,NS(=O)(=O)c1ccc(-c2c(-c3ccccc3)noc2CO)cc1,test_full_conformations
951,293,1,data/moses_wfns/archive_0_0_2.tar,-1425.3239566994218,-115.81836425816864,2013.232229508074,-5947.612238337379,2624.900918030565,-3.3656618516434467,-3.209107083803411,0.1023928836871863,4.65150860233054,0.0101809394017925,0.0051924335528067,0.0037727885396007,-0.3401745767859062,-0.0053262160487788,0.3348483607371273,-1418.727964991088,-6.595991708333713,NS(=O)(=O)c1ccc(-c2c(-c3ccccc3)noc2CO)cc1,train_full
952,294,0,data/moses_wfns/archive_0_0_2.tar,-1411.7472683296776,-115.84920598057911,2149.464312421386,-6201.299268487547,2755.968738581145,-1.980267143227637,-5.681333313303494,2.172931581795183,6.396924091667957,0.0106779321396007,0.0054498905353042,0.004520213842901,-0.3045443884707116,0.028225078786899,0.3327694672576106,-1404.5161157930108,-7.231152536666741,COc1ccc(S(=O)(=O)NC2CCc3ccccc32)cc1OC,"train_medium,train_large,train_full"
953,294,1,data/moses_wfns/archive_0_0_2.tar,-1411.7674848048769,-115.78931100454244,2149.114900795548,-6200.425063618804,2755.364195270557,-0.8409387376405758,-6.296620502399439,1.5037461456451415,6.528082427653937,0.0106271336536825,0.005465046347991,0.004502717110353,-0.310538731363324,0.0243935353749362,0.3349322667382602,-1404.5161157930108,-7.251369011866018,COc1ccc(S(=O)(=O)NC2CCc3ccccc32)cc1OC,"train_medium,train_large,test_full_conformations"
954,294,2,data/moses_wfns/archive_0_0_2.tar,-1411.7542106408855,-115.79135598805598,2112.885843136429,-6128.326550779555,2719.509097995576,0.5339669145489808,1.9546516290509663,-6.830239697505253,7.124461943344298,0.0150334407881889,0.0040666994136797,0.0037292558243768,-0.3119922490152368,0.0178936740170686,0.3298859230323054,-1404.5161157930108,-7.23809484787489,COc1ccc(S(=O)(=O)NC2CCc3ccccc32)cc1OC,"train_full,test_medium_conformations,test_large_conformations"
955,294,3,data/moses_wfns/archive_0_0_2.tar,-1411.7606685495166,-115.80492208881506,2116.3531212941807,-6135.138988932015,2722.861652918356,-0.0874955290959846,-5.801560689717884,1.861171910270933,6.093416347474805,0.0141757391079189,0.0042247677582295,0.0037659755233885,-0.3097182432340832,0.02258233671459,0.3323005799486732,-1404.5161157930108,-7.244552756505755,COc1ccc(S(=O)(=O)NC2CCc3ccccc32)cc1OC,"train_medium,train_large,train_full"
956,294,4,data/moses_wfns/archive_0_0_2.tar,-1411.765286747422,-115.7757636501081,2122.9507838910777,-6148.420483079586,2729.5117351905933,2.233342567844346,5.75923823679592,-3.42699999308947,7.06406207830544,0.0142434936730928,0.004314363951303,0.003905999287919,-0.3097027619667299,0.0220040110801241,0.331706773046854,-1404.5161157930108,-7.249170954411056,COc1ccc(S(=O)(=O)NC2CCc3ccccc32)cc1OC,"train_medium,train_large,train_full"
957,295,0,data/moses_wfns/archive_0_0_2.tar,-1451.026899091992,-119.97238744924366,2317.8734522991394,-6589.700783459022,2940.8093132738973,-3.702351378889303,5.711674780099657,1.5933687272749772,6.990669383360071,0.0104333454890313,0.0049899323404607,0.0041833916220696,-0.310911661557827,0.0175645344592084,0.3284761960170354,-1443.3192016522155,-7.707697439776439,COc1ccc(S(=O)(=O)NC2CCCc3ccccc32)cc1OC,train_full
958,295,1,data/moses_wfns/archive_0_0_2.tar,-1450.9931086811257,-120.05694770055013,2290.7554280780096,-6535.48395890361,2913.8278970610645,-1.0112083383679082,5.731829613384706,4.331371266598358,7.255149210703562,0.0132473850350146,0.0040544839510808,0.0035068473167227,-0.2998874359762707,0.0301444340759066,0.3300318700521773,-1443.3192016522155,-7.673907028910207,COc1ccc(S(=O)(=O)NC2CCCc3ccccc32)cc1OC,train_full
959,295,2,data/moses_wfns/archive_0_0_2.tar,-1451.045058700399,-119.98362239721855,2283.175444921928,-6520.62799967104,2906.426969622442,1.2439372369842367,-3.639634220452775,3.8376147786947614,5.433378718431406,0.0129949928284656,0.0040019601407816,0.0035455140981407,-0.308421223256285,0.0240243293722794,0.3324455526285644,-1443.3192016522155,-7.72585704818357,COc1ccc(S(=O)(=O)NC2CCCc3ccccc32)cc1OC,train_full
960,295,3,data/moses_wfns/archive_0_0_2.tar,-1451.036773064857,-119.96025454955274,2329.4194923493988,-6613.242596791102,2952.783124285437,-0.9527142716224172,0.4270723094781651,5.325055637955201,5.4264420008136565,0.0096660231098063,0.0053950901714782,0.0044290691585813,-0.3080008345995763,0.0210827990778629,0.3290836336774392,-1443.3192016522155,-7.717571412641519,COc1ccc(S(=O)(=O)NC2CCCc3ccccc32)cc1OC,train_full
961,295,4,data/moses_wfns/archive_0_0_2.tar,-1451.0376927193963,-120.00357536076228,2315.4149871333784,-6584.908610432034,2938.4955087938,-3.173309796438788,3.2971863647487414,5.363316965127922,7.050283813896316,0.0096086772867297,0.0050163977621737,0.0043858130642479,-0.3048018676453036,0.0268733301137626,0.3316751977590662,-1443.3192016522155,-7.718491067180821,COc1ccc(S(=O)(=O)NC2CCCc3ccccc32)cc1OC,train_full
962,295,5,data/moses_wfns/archive_0_0_2.tar,-1451.0390348114695,-120.00277311314854,2297.4107655081,-6549.040993382148,2920.629330047951,4.114351933436487,-5.236109545875245,1.1966617176599783,6.7658505950908605,0.0127407232138904,0.0042080175981112,0.0037252972390888,-0.3088702864977359,0.0275469037793345,0.3364171902770704,-1443.3192016522155,-7.719833159253994,COc1ccc(S(=O)(=O)NC2CCCc3ccccc32)cc1OC,test_full_conformations
963,296,0,data/moses_wfns/archive_0_0_2.tar,-1411.7561841758347,-115.80328827485428,2108.5039072163927,-6119.468309161463,2715.042178913214,2.2871744389818103,-4.689431716059034,-1.676572256589817,5.480221826302181,0.0180202988397539,0.0036727690863208,0.0034236480261064,-0.3103354708830586,0.012808424597914,0.3231438954809725,-1404.5161157930108,-7.240068382823891,COc1ccc(S(=O)(=O)N2CCc3ccccc3C2)cc1OC,train_full
964,296,1,data/moses_wfns/archive_0_0_2.tar,-1411.713974160408,-115.8477716967759,2100.182573213959,-6102.966662031495,2706.9474985752645,4.628664558371283,4.563102223147607,-2.6054914441017747,7.002501207290478,0.0182440675799072,0.0035911599259426,0.0033444874593682,-0.2962631023524461,0.0255772136844245,0.3218403160368706,-1404.5161157930108,-7.1978583673972025,COc1ccc(S(=O)(=O)N2CCc3ccccc3C2)cc1OC,train_full
965,296,2,data/moses_wfns/archive_0_0_2.tar,-1411.7576468411964,-115.80039932643996,2114.986643372634,-6132.261391723663,2721.348053643002,0.3140291309141733,1.4588962308047768,6.333481479064864,6.5069178689281735,0.0155712359945882,0.0039278786653755,0.0037560543462086,-0.3084588264344456,0.0240321998697428,0.3324910263041884,-1404.5161157930108,-7.241531048185607,COc1ccc(S(=O)(=O)N2CCc3ccccc3C2)cc1OC,test_full_conformations
966,297,0,data/moses_wfns/archive_0_0_2.tar,-1372.4888070387635,-111.55892763271046,1972.4185919331285,-5795.321218529412,2561.999658737363,-3.2345282385269,-4.26031215695357,-2.2951060912407506,5.82064812289531,0.016340360150644,0.0045953154871567,0.0042830249742931,-0.2885624991210314,0.0198408602994042,0.3084033594204355,-1365.7130299338055,-6.775777104957797,COc1ccc(S(=O)(=O)N2CCc3ccccc32)cc1OC,train_full
967,297,1,data/moses_wfns/archive_0_0_2.tar,-1372.4853345399656,-111.56100210036736,1985.2763536933355,-5821.052447051583,2574.878880507898,-2.8002958141702554,-5.386263750370141,-0.4289703121204338,6.085845000005469,0.0145502965698119,0.005002909081562,0.004664093814835,-0.2936768283903173,0.0232596536061975,0.3169364819965148,-1365.7130299338055,-6.772304606159878,COc1ccc(S(=O)(=O)N2CCc3ccccc32)cc1OC,train_full
968,297,2,data/moses_wfns/archive_0_0_2.tar,-1372.481535232978,-111.56722587924696,1968.5367583354844,-5787.465660139864,2558.0412446699734,-1.1323807504038454,5.633378882123103,1.9966245634638689,6.083071053412331,0.0159950667352238,0.0044966903119278,0.0043662120103855,-0.29051045746419,0.0203119618156393,0.3108224192798293,-1365.7130299338055,-6.768505299172375,COc1ccc(S(=O)(=O)N2CCc3ccccc32)cc1OC,test_full_conformations
969,297,3,data/moses_wfns/archive_0_0_2.tar,-1372.4791048388183,-111.56317897140124,1972.745045911344,-5796.020171663954,2562.385995799134,-1.258300310959863,1.2163511246209315,-5.6223015204367615,5.888387225517172,0.0162154235544505,0.0046990473183751,0.0042744428849903,-0.2937251297999841,0.021751000404658,0.3154761302046421,-1365.7130299338055,-6.7660749050126014,COc1ccc(S(=O)(=O)N2CCc3ccccc32)cc1OC,train_full
970,298,0,data/moses_wfns/archive_0_0_2.tar,-1116.4943356914252,-107.77423938490878,2099.454088689953,-5685.873337109122,2577.729438492021,-0.558675108601149,-4.205628075012479,1.1604123594412794,4.39840678271664,0.0068872068498131,0.0053913118048356,0.0032584605889699,-0.3025668059343925,0.0077227676147039,0.3102895735490964,-1108.748642656162,-7.74569303526323,CN(c1ccccc1)c1nc(N2CCOCC2)nc(-n2ccnc2)n1,train_full
971,298,1,data/moses_wfns/archive_0_0_2.tar,-1116.4861720285342,-107.73616101055735,2102.8618476658967,-5692.628638349954,2581.047006739745,-0.7510747365695595,-3.674792696976421,1.9858889704696367,4.244051086956568,0.0074963650664813,0.0050524941857817,0.0033623393078558,-0.2935377282844323,-0.0012439501704328,0.2922937781139995,-1108.748642656162,-7.737529372372137,CN(c1ccccc1)c1nc(N2CCOCC2)nc(-n2ccnc2)n1,train_full
972,298,2,data/moses_wfns/archive_0_0_2.tar,-1116.5277139899367,-107.74638776612922,2106.1789408376726,-5699.227572007434,2584.298038677646,-1.5224883123552269,-4.516063394102204,-1.768685700497576,5.083409126555996,0.0088557375107353,0.0046807237569131,0.0030837804062529,-0.2957631014617358,0.0079101374088563,0.3036732388705921,-1108.748642656162,-7.779071333774709,CN(c1ccccc1)c1nc(N2CCOCC2)nc(-n2ccnc2)n1,train_full
973,298,3,data/moses_wfns/archive_0_0_2.tar,-1116.532333691276,-107.72109751808355,2119.789552857147,-5726.854140501268,2598.283792058857,0.1976652877642204,-4.170713955418437,0.240972968397091,4.1823431752316935,0.0077065758745125,0.0054553929454543,0.0033800397518975,-0.3061547403127414,0.0153595871214952,0.3215143274342366,-1108.748642656162,-7.783691035113861,CN(c1ccccc1)c1nc(N2CCOCC2)nc(-n2ccnc2)n1,train_full
974,298,4,data/moses_wfns/archive_0_0_2.tar,-1116.5016237651057,-107.69452115620432,2099.9527208819186,-5687.230134141879,2578.500384841818,-0.7987456196954162,-4.611531509924304,-2.624148347957881,5.36566603359708,0.0071932658103287,0.0052156986797523,0.0033392575292197,-0.3046713796147337,0.0073957569028208,0.3120671365175544,-1108.748642656162,-7.752981108943686,CN(c1ccccc1)c1nc(N2CCOCC2)nc(-n2ccnc2)n1,test_full_conformations
975,298,5,data/moses_wfns/archive_0_0_2.tar,-1116.5302040260317,-107.74165007874768,2113.40349512431,-5713.706313137236,2591.5449584486896,0.0368000526202991,-5.25824232369298,1.3910095400805855,5.439243892228424,0.0087215724861458,0.0048151657978768,0.0031806030455828,-0.2967084804403921,0.0079132600513016,0.3046217404916937,-1108.748642656162,-7.781561369869451,CN(c1ccccc1)c1nc(N2CCOCC2)nc(-n2ccnc2)n1,train_full
976,298,6,data/moses_wfns/archive_0_0_2.tar,-1116.5103536433855,-107.70970499490316,2115.018423353197,-5717.339808191258,2593.550913848804,2.2509025558520457,-4.745585361839132,-1.83852991528002,5.564830185353609,0.0079120200949696,0.0052881793396362,0.003375657800589,-0.3020073982095042,0.0149531833788465,0.3169605815883506,-1108.748642656162,-7.761710987223523,CN(c1ccccc1)c1nc(N2CCOCC2)nc(-n2ccnc2)n1,train_full