,MOSES id,CONFORMER id,archive name,DFT TOTAL ENERGY,DFT XC ENERGY,DFT NUCLEAR REPULSION ENERGY,DFT ONE-ELECTRON ENERGY,DFT TWO-ELECTRON ENERGY,DFT DIPOLE X,DFT DIPOLE Y,DFT DIPOLE Z,DFT TOTAL DIPOLE,DFT ROT CONSTANT A,DFT ROT CONSTANT B,DFT ROT CONSTANT C,DFT HOMO,DFT LUMO,DFT HOMO-LUMO GAP,DFT ATOMIC ENERGY,DFT FORMATION ENERGY,SMILES,SPLITS
327,98,5,data/moses_wfns/archive_0_0_0.tar,-1366.4426785975022,-109.46133993685808,1923.490376244255,-5691.714660574301,2511.2694225825444,-3.377615160948701,3.457790098520376,6.181087216692784,7.846683103149956,0.0198916876897893,0.0053889345721572,0.0053033387454722,-0.3088270432306015,0.0082384998727734,0.3170655431033749,-1360.358575054417,-6.084103543084893,CC(=O)N(c1onc(C)c1C)S(=O)(=O)c1ccc(N)cc1,train_full
328,98,6,data/moses_wfns/archive_0_0_0.tar,-1366.3859387229868,-109.48616497736693,1933.1667802243312,-5710.3336750817925,2520.293548107067,-7.42512123038878,5.2090035761557685,-2.2209693133222297,9.338032353397196,0.0145710640091804,0.0064931051159735,0.0056345426530939,-0.3155046538672394,0.0106581216637991,0.3261627755310385,-1360.358575054417,-6.027363668569478,CC(=O)N(c1onc(C)c1C)S(=O)(=O)c1ccc(N)cc1,train_full
329,98,7,data/moses_wfns/archive_0_0_0.tar,-1366.4334863859876,-109.46763215429682,1934.7443708629585,-5713.77294200075,2522.089904665633,0.7601423477014794,8.578461663475851,-6.036562093674215,10.517029181821188,0.0125477618498038,0.0069965096817167,0.0057232781156117,-0.3189648628280562,0.0065737497849231,0.3255386126129793,-1360.358575054417,-6.07491133157032,CC(=O)N(c1onc(C)c1C)S(=O)(=O)c1ccc(N)cc1,train_full
330,99,0,data/moses_wfns/archive_0_0_0.tar,-1594.973557303414,-112.05780055975688,1683.885954610803,-5534.110353634704,2367.332014883183,-8.113359054083453,9.68569337811858,-3.2962747173748057,13.057743999934,0.0288267010105268,0.0048555790575285,0.0045981964658179,-0.3332073392731085,-0.0084802332910497,0.3247271059820588,-1589.9112967718595,-5.06226053155433,NS(=O)(=O)c1ccc(N2CCCCS2(=O)=O)cc1,test_full_scaffolds
331,99,1,data/moses_wfns/archive_0_0_0.tar,-1594.9933547789806,-112.10641619832155,1691.3404281527082,-5548.970476333683,2374.766588365137,-6.621028072219748,8.718657248367387,-4.762191737687516,11.938654325095872,0.0279787803486041,0.0049821335196379,0.0046906568706734,-0.3339324904343003,-0.001127256849558,0.3328052335847423,-1589.9112967718595,-5.08205800712085,NS(=O)(=O)c1ccc(N2CCCCS2(=O)=O)cc1,test_full_scaffolds
332,99,2,data/moses_wfns/archive_0_0_0.tar,-1594.9971212873793,-112.06858472765988,1684.9800098901944,-5536.259820676923,2368.3746092371334,-7.128127602029463,0.5338796438302227,-2.20335012857905,7.479972083772767,0.0312085785437854,0.0048748978388223,0.0046890463054061,-0.3450470616437272,-0.0055893218123167,0.3394577398314105,-1589.9112967718595,-5.085824515519562,NS(=O)(=O)c1ccc(N2CCCCS2(=O)=O)cc1,test_full_scaffolds
333,100,0,data/moses_wfns/archive_0_0_0.tar,-1233.5141967283444,-98.67892218210932,1594.6042596344646,-4854.89966762725,2125.4864565849985,3.2885031594520915,6.161004300893167,2.066263254865729,7.28297129362452,0.0177335855273024,0.0062905889282315,0.0055601276864509,-0.2762746684511483,0.0296252967359585,0.3058999651871067,-1227.6320276056742,-5.8821691226701205,Cc1ncc(Cn2c(C)c(CCO)sc2=O)c(N)n1,test_full_scaffolds
334,100,1,data/moses_wfns/archive_0_0_0.tar,-1233.5063635301728,-98.64501057486795,1581.4516291096136,-4828.394253586539,2112.107743023784,3.14979289076363,-4.987052694812798,-0.7364177304937276,5.944257809796798,0.0224358119053773,0.0059501099282139,0.0052979953856862,-0.2790947038655487,0.0250265681073695,0.3041212719729181,-1227.6320276056742,-5.8743359244986095,Cc1ncc(Cn2c(C)c(CCO)sc2=O)c(N)n1,test_full_scaffolds
335,100,2,data/moses_wfns/archive_0_0_0.tar,-1233.5116005938794,-98.69338057911088,1587.7368074611245,-4840.364265022767,2117.8362510315555,3.986668808774557,-5.40781071641107,1.3525928937789644,6.853280416828695,0.0182247111297366,0.0064998477564091,0.005565708810208,-0.2792697193806818,0.0290619948697111,0.3083317142503929,-1227.6320276056742,-5.879572988205155,Cc1ncc(Cn2c(C)c(CCO)sc2=O)c(N)n1,test_full_scaffolds
336,100,3,data/moses_wfns/archive_0_0_0.tar,-1233.5143937533971,-98.6773078728715,1600.7142239763705,-4867.194583224337,2131.670364202054,2.7186312730637767,0.8439659113751095,4.516927557046132,5.33908878124782,0.0215058405255888,0.0063138928746478,0.0053901856171395,-0.2734115097260896,0.0321168224496666,0.3055283321757561,-1227.6320276056742,-5.882366147722905,Cc1ncc(Cn2c(C)c(CCO)sc2=O)c(N)n1,test_full_scaffolds
337,100,4,data/moses_wfns/archive_0_0_0.tar,-1233.5117033282552,-98.72760027411688,1599.1473351868383,-4863.373902007923,2129.46940628062,1.1399673745764405,1.5449682416667043,-4.589124615154605,4.974587140283634,0.0229134837211194,0.0060646613560642,0.0053094958126655,-0.2782442305630791,0.0259741055403008,0.3042183361033799,-1227.6320276056742,-5.8796757225809415,Cc1ncc(Cn2c(C)c(CCO)sc2=O)c(N)n1,test_full_scaffolds
338,101,0,data/moses_wfns/archive_0_0_1.tar,-1793.101969416959,-127.15166662682384,2139.106219507091,-6706.083397022086,2901.0553746928863,-1.6300377042241354,6.140851066447011,0.6418472962981822,6.385847061215996,0.0089228374088652,0.0068913425747319,0.004382616480383,-0.2715251157824233,-0.0181713353260069,0.2533537804564164,-1786.664566565159,-6.437402851800016,Cc1nnc2n1-c1ccc(Cl)cc1C(c1ccccc1Cl)=NC2,test_full_conformations
339,101,1,data/moses_wfns/archive_0_0_1.tar,-1793.1376760202827,-127.11859925707518,2167.1784377735075,-6762.092390658021,2928.923589538359,-2.876052782296843,3.8337348090759833,1.8329558428887585,5.1311723138926375,0.0097083842061658,0.0068215362516355,0.0047654646868779,-0.3120330784335228,-0.0237833199915513,0.2882497584419715,-1786.664566565159,-6.4731094551236765,Cc1nnc2n1-c1ccc(Cl)cc1C(c1ccccc1Cl)=NC2,train_full
340,101,2,data/moses_wfns/archive_0_0_1.tar,-1793.113580087562,-127.1523780663751,2131.952308279386,-6691.744540397007,2893.859405842048,-1.4383227740312827,5.495356752522349,-2.525660572751007,6.216645362938034,0.0087572332393874,0.0067156936982378,0.004322166936201,-0.283375010058939,-0.018864050047274,0.264510960011665,-1786.664566565159,-6.449013522402993,Cc1nnc2n1-c1ccc(Cl)cc1C(c1ccccc1Cl)=NC2,train_full
341,102,0,data/moses_wfns/archive_0_0_1.tar,-1213.808228989583,-110.62782237851812,2087.472842327053,-5809.223104944755,2618.598440804888,-0.5942323933432286,0.0802913913141055,0.4341198165901506,0.740282959397177,0.0090996390183168,0.0071879917615719,0.0043841207677013,-0.3000122976766252,0.0113419013417982,0.3113541990184233,-1206.9416955546194,-6.866533434963685,CN1C(=O)CC(=O)N(c2ccccc2)c2cc(C(F)(F)F)ccc21,train_full
342,103,0,data/moses_wfns/archive_0_0_1.tar,-1171.5903298985477,-102.26555387269671,1713.1034951900008,-5013.889122724353,2231.4835964107524,-3.2803413010100075,3.9028795834046224,1.5522556481717578,5.32940950677932,0.0259390609550608,0.004821711628766,0.0045372866860696,-0.3396941045601341,-0.0145328678065672,0.3251612367535669,-1166.2800479361051,-5.310281962442332,O=c1[nH]c(=O)n(C2CC(O)C(CO)O2)cc1C(F)(F)F,train_full
343,103,1,data/moses_wfns/archive_0_0_1.tar,-1171.586779898676,-102.26835616674184,1713.4266946197806,-5014.443504028134,2231.7209022370653,-5.271215994162045,2.0579097191418723,0.5475804167910616,5.685116954126926,0.0245037810541428,0.0050593658283475,0.0045917241163689,-0.3505872988300698,-0.0122778744603682,0.3383094243697016,-1166.2800479361051,-5.306731962570666,O=c1[nH]c(=O)n(C2CC(O)C(CO)O2)cc1C(F)(F)F,train_full
344,103,2,data/moses_wfns/archive_0_0_1.tar,-1171.6001670533324,-102.24745646760992,1733.1102181054446,-5054.772518105185,2252.332497865744,-8.455969360735184,0.0377593309856653,2.864327010218619,8.928001613924394,0.0179614756323632,0.0064294738029295,0.0051190495920757,-0.3332011167034601,-0.0007848245595921,0.332416292143868,-1166.2800479361051,-5.320119117227023,O=c1[nH]c(=O)n(C2CC(O)C(CO)O2)cc1C(F)(F)F,test_full_conformations
345,104,0,data/moses_wfns/archive_0_0_1.tar,-3509.3715801404664,-134.93143463776192,1135.1196208058602,-7119.639195188307,2610.089683435857,0.4132293034085857,0.916968609205155,-0.0023738614379215,1.005781051064946,0.0266236534571986,0.0094262242586139,0.0069623179631231,-0.2975972444818625,-0.0116207464058053,0.2859764980760572,-3506.040274923052,-3.3313052174144104,Oc1c(Br)cc(Cl)c2cccnc12,train_full
346,105,0,data/moses_wfns/archive_0_0_1.tar,-973.5849615529908,-92.3161561356798,1721.0035212203018,-4744.599517170577,2142.355960835305,0.1318202959242769,-1.6015941698832843,0.2922385603835662,1.6333658045877997,0.0179477014959858,0.0084761180255434,0.0066034731166545,-0.28765236550525,0.0047978370320773,0.2924502025373273,-967.1896959446271,-6.395265608363729,Cc1nn(C)c2c1C(c1ccccc1F)=NCC(=O)N2C,train_full
347,105,1,data/moses_wfns/archive_0_0_1.tar,-973.5712560293248,-92.31057456052147,1705.127105332955,-4712.87892367277,2126.5198283600125,-0.7522644252114077,-3.620708723318524,0.3205379580158268,3.7118968206406895,0.0169008955856493,0.0082391250154206,0.0061584090103956,-0.2873613715431481,0.0065606883344373,0.2939220598775854,-967.1896959446271,-6.381560084697526,Cc1nn(C)c2c1C(c1ccccc1F)=NCC(=O)N2C,test_full_conformations
348,105,2,data/moses_wfns/archive_0_0_1.tar,-973.5862854745952,-92.32152021017144,1721.554863425263,-4745.63100714603,2142.840066503934,0.1602273546977276,-1.5576669530346745,-0.8311099850592062,1.7727783135617583,0.017920936655043,0.0084362528264526,0.0066115872501134,-0.2891599702470481,0.0056274774631602,0.2947874477102083,-967.1896959446271,-6.396589529968196,Cc1nn(C)c2c1C(c1ccccc1F)=NCC(=O)N2C,train_full
349,106,0,data/moses_wfns/archive_0_0_1.tar,-1197.7860296682804,-95.7997441938128,1438.1024764055037,-4490.090953357718,1950.021078886041,-6.471318027026769,-4.983648378418249,-2.7207066295571507,8.60912032270131,0.0518953390243334,0.003974903157786,0.003809949043128,-0.2935192198475799,-0.0095581850483326,0.2839610347992473,-1192.1734235923934,-5.612606075887015,CS(=O)(=O)c1ccc(-c2cn3ccccc3n2)cc1,train_full
350,107,0,data/moses_wfns/archive_0_0_1.tar,-1220.7082498176694,-95.84372958148644,1531.8235609288083,-4709.508890614728,2052.847182665597,-4.373552716600567,-1.584800073665403,-0.0428320734983495,4.652030656057011,0.0192731322202483,0.0073110439937243,0.0058498160040513,-0.2713838394586886,0.0108838337980036,0.2822676732566922,-1214.7890986562345,-5.919151161434911,Cc1nn(C)c2c1C(c1cccc(Cl)c1)=NCCN2,test_full_structures
351,107,1,data/moses_wfns/archive_0_0_1.tar,-1220.716642141411,-95.77842095722934,1522.3380098563723,-4690.6299519975455,2043.38035744183,-4.657043954039775,0.9578037271953458,2.2753392007881525,5.270921631776647,0.0237088258990379,0.0063989960302902,0.0053858756980491,-0.2729652446554896,0.0131806566706851,0.2861459013261747,-1214.7890986562345,-5.927543485176557,Cc1nn(C)c2c1C(c1cccc(Cl)c1)=NCCN2,test_full_structures
352,107,2,data/moses_wfns/archive_0_0_1.tar,-1220.7161942683651,-95.78520694958382,1518.7021733386,-4683.32806128607,2039.721303196404,-5.279664826643795,0.5413249106250158,-1.0982673273892272,5.419786385363681,0.023794957752316,0.0063497847161272,0.0053285489896824,-0.2717771247816832,0.0096984099705504,0.2814755347522336,-1214.7890986562345,-5.927095612130643,Cc1nn(C)c2c1C(c1cccc(Cl)c1)=NCCN2,test_full_structures
353,108,0,data/moses_wfns/archive_0_0_1.tar,-1575.3744925972208,-109.83988757462988,1500.628510246067,-5143.298468270954,2177.151290251342,-4.167427502688999,4.054084770716311,-4.365734962948188,7.270673771049751,0.0361096096628215,0.0043383407005777,0.0041118835042819,-0.3361540895035776,-0.0161161307613821,0.3200379587421955,-1570.6745149901208,-4.6999776070999815,NS(=O)(=O)c1cc(C(=O)c2ccc(O)cc2)cs1,train_full
354,108,1,data/moses_wfns/archive_0_0_1.tar,-1575.386310435356,-109.83744890148397,1507.5448734128315,-5156.424907556071,2183.347680624333,-6.86655566176436,-4.6559462068475055,-3.766839430303704,9.11133914585867,0.0343020871924242,0.0044281524373072,0.0041820344473988,-0.341188925732696,-0.0195468205139817,0.3216421052187143,-1570.6745149901208,-4.711795445235339,NS(=O)(=O)c1cc(C(=O)c2ccc(O)cc2)cs1,train_full
355,108,2,data/moses_wfns/archive_0_0_1.tar,-1575.3550541197792,-109.8352083237398,1495.1383591655524,-5131.999748371864,2171.3573422191,-3.702756344023269,0.6384133524276806,-4.094680138515697,5.557371823849601,0.0372854003605434,0.0042435458350674,0.0040109217669385,-0.3344061913154267,-0.0286829050428405,0.3057232862725862,-1570.6745149901208,-4.680539129658428,NS(=O)(=O)c1cc(C(=O)c2ccc(O)cc2)cs1,train_full
356,108,3,data/moses_wfns/archive_0_0_1.tar,-1575.3812159677143,-109.8739311417728,1531.2207901928407,-5204.24733376348,2207.535852271915,0.0883563351369673,3.105001447582825,-0.8207153357866039,3.2128514584159653,0.0187738766784338,0.0062950576593774,0.0050572140958496,-0.3388407542442684,-0.0194721186208031,0.3193686356234653,-1570.6745149901208,-4.706700977593528,NS(=O)(=O)c1cc(C(=O)c2ccc(O)cc2)cs1,test_full_conformations
357,109,0,data/moses_wfns/archive_0_0_1.tar,-1001.7216227156318,-93.020298188297,1645.22358336019,-4635.17936419171,2081.279625915452,-1.690522968001432,-1.8520273447440685,-2.3768301913061163,3.4550245946048497,0.0236875619755916,0.0060940476981111,0.005495154338075,-0.2908396386046105,0.0333853654159947,0.3242250040206051,-995.8352781986276,-5.886344517004204,COC1C(O)C(CO)OC1n1cnc2c(N)ncnc21,test_full_conformations
358,109,1,data/moses_wfns/archive_0_0_1.tar,-1001.719659472318,-93.02351893699787,1666.4355016375314,-4677.33333182651,2102.2278617175803,-1.6968066726052058,-2.67140523790418,0.3651840211750696,3.185736680678589,0.0254857259573922,0.0062958147073429,0.0057281207016101,-0.2846538436009598,0.0414879809354856,0.3261418245364454,-995.8352781986276,-5.884381273690451,COC1C(O)C(CO)OC1n1cnc2c(N)ncnc21,train_full
359,109,2,data/moses_wfns/archive_0_0_1.tar,-1001.7191223624112,-93.0238171730928,1684.19031775194,-4712.326390446344,2119.4679031733044,-2.668848474308806,-0.4647867156688205,-1.967295415577203,3.347988966832736,0.0254807668865391,0.0069255294215764,0.0060912074645591,-0.3083467874590479,0.0163731133938852,0.3247199008529331,-995.8352781986276,-5.883844163783692,COC1C(O)C(CO)OC1n1cnc2c(N)ncnc21,train_full
360,110,0,data/moses_wfns/archive_0_0_1.tar,-1540.371554524822,-100.71206081883744,1233.7341282638708,-4564.673211474943,1891.292611765244,2.081411493654109,-0.086334850054961,-0.3475724412818113,2.1119976596076144,0.0209857851377836,0.0080929814261015,0.007176620616762,-0.3167419553310313,0.0357728099669878,0.352514765298019,-1536.2897203659284,-4.081834158893571,Nc1nc(N)nc(-c2cc(Cl)ccc2Cl)n1,train_full
361,111,0,data/moses_wfns/archive_0_0_1.tar,-895.2565457195265,-87.56627763097929,1504.837614988852,-4199.64182504684,1887.1376289976893,1.1905212972364072,-4.29528376763222,-0.9369878265014202,4.554640467772418,0.0257607918035505,0.0045674908574785,0.0041791237703791,-0.2819985200041079,0.0260364751446041,0.308034995148712,-888.6490102931755,-6.607535426350978,Cc1nc2c(OCc3ccccc3)cccn2c1CC#N,test_full_conformations
362,111,1,data/moses_wfns/archive_0_0_1.tar,-895.2761752936684,-87.60964891212379,1509.8748544852838,-4209.73095148875,1892.213435189253,2.900595463238936,-0.3337136487809346,-3.7954988590006,4.788593784131187,0.0274088448174451,0.0045721344183828,0.0042210262644381,-0.2699420204117033,0.0326784591682476,0.3026204795799508,-888.6490102931755,-6.627165000492937,Cc1nc2c(OCc3ccccc3)cccn2c1CC#N,train_full
363,111,2,data/moses_wfns/archive_0_0_1.tar,-895.3202286097787,-87.59360251375983,1501.181959141454,-4192.532371311374,1883.647862178704,0.5326770230550741,-1.2436471989314897,-5.706003254666818,5.864202955949707,0.0235627947323143,0.0046598684009041,0.0039006145727201,-0.2804994186679814,0.0281558333806076,0.308655252048589,-888.6490102931755,-6.671218316603245,Cc1nc2c(OCc3ccccc3)cccn2c1CC#N,train_full
364,112,0,data/moses_wfns/archive_0_0_1.tar,-834.0262099860091,-80.48772835193833,1280.4717857774683,-3671.340569266081,1637.3507359106873,-2.542229212238822,-2.2077983399564824,4.2672313697678135,5.435675343561783,0.0428495831681225,0.0050314453827269,0.0045530064133463,-0.3065912968945103,0.0043564902523455,0.3109477871468558,-828.2696473230402,-5.756562662968918,N#Cc1ccc(Nc2ncnc3c2CCC3O)cc1,train_full
365,113,0,data/moses_wfns/archive_0_0_1.tar,-815.4049819771402,-79.92037640487817,1364.189215313978,-3812.652351045387,1713.001636355201,-1.7302090860207695,-1.7244309116103769,0.4375936158897489,2.481687656199645,0.0289883149030572,0.0068058878242664,0.0062608263924658,-0.264400407776438,0.0376834612869422,0.3020838690633802,-809.3228638320104,-6.082118145129812,CN(C)c1ncnc2c1ncn2Cc1ccccc1,"train_full,test_large_conformations"
366,113,1,data/moses_wfns/archive_0_0_1.tar,-815.392098750748,-79.93780680287675,1362.8166076229577,-3809.6161480554338,1711.3684509455993,-3.130493744608392,-1.636028497094288,-0.1224691367858998,3.534342798569763,0.029578905272795,0.0067333474617427,0.0063257003218178,-0.268691671867049,0.0237723303618497,0.2924640022288987,-809.3228638320104,-6.069234918737607,CN(C)c1ncnc2c1ncn2Cc1ccccc1,"train_large,train_full"
367,113,2,data/moses_wfns/archive_0_0_1.tar,-815.3880262245202,-79.91431911777015,1358.748915620849,-3801.48728078918,1707.2877508233255,-2.6289786431352447,-1.6491167768942314,-0.7134181661294754,3.184349278841565,0.0282749086771863,0.0067057056685266,0.0063287895816822,-0.2738123145777598,0.0228978916730183,0.2967102062507781,-809.3228638320104,-6.065162392509819,CN(C)c1ncnc2c1ncn2Cc1ccccc1,"train_large,test_full_conformations"
368,113,3,data/moses_wfns/archive_0_0_1.tar,-815.3924321439396,-79.92370227302717,1361.6528676978571,-3807.288236819846,1710.1898395426642,-2.7691599746251208,0.7787093669669898,-1.5778687147133377,3.2809000173944725,0.0294294178344657,0.0067151112566755,0.0063217255734571,-0.2723599646200866,0.0213652946172818,0.2937252592373684,-809.3228638320104,-6.069568311929174,CN(C)c1ncnc2c1ncn2Cc1ccccc1,"train_large,train_full"
369,114,0,data/moses_wfns/archive_0_0_1.tar,-1026.2061603821207,-96.51281638145024,1720.1892060292353,-4815.06622553836,2165.211326847624,-2.0157379075907844,-0.2596198601848136,0.7961905949641757,2.182778332174448,0.01755349501403,0.0045048581681139,0.0037280952440368,-0.3037281452433276,0.0297922186546477,0.3335203638979753,-1019.4215283430226,-6.784632039098142,CCOC(=O)n1nc(N)c2c1CN(C(=O)OC(C)(C)C)C2,train_full
370,114,1,data/moses_wfns/archive_0_0_1.tar,-1026.2042411253817,-96.555289377496,1712.3060667462532,-4799.6240110487815,2157.6963305758954,0.5916455765133659,-1.283688275143266,3.0330715600320906,3.3462550955095494,0.0201805618854287,0.0041469197671603,0.0035899664033888,-0.3091373479459466,0.024401733250364,0.3335390811963106,-1019.4215283430226,-6.782712782358885,CCOC(=O)n1nc(N)c2c1CN(C(=O)OC(C)(C)C)C2,train_full
371,114,2,data/moses_wfns/archive_0_0_1.tar,-1026.1981105087382,-96.50133108442778,1709.6909292615535,-4794.309193208501,2154.9485601597626,2.5836071369694333,0.3153295602743735,-0.1060067320806612,2.6049368508715607,0.0165240403750464,0.0045376115943397,0.00369559623712,-0.3127392180971509,0.0194047341858911,0.332143952283042,-1019.4215283430226,-6.776582165715581,CCOC(=O)n1nc(N)c2c1CN(C(=O)OC(C)(C)C)C2,train_full
372,114,3,data/moses_wfns/archive_0_0_1.tar,-1026.193723816438,-96.50624081724504,1733.4918907789347,-4841.569627502057,2178.417635316709,-0.5024704529401607,0.053901643629003,-2.8126792881533973,2.857717047097368,0.012621678148016,0.0056183452449963,0.0040617421324452,-0.3203380051181673,0.0204067974840143,0.3407448026021816,-1019.4215283430226,-6.772195473415422,CCOC(=O)n1nc(N)c2c1CN(C(=O)OC(C)(C)C)C2,test_full_conformations